                  Welcome to Q-Chem
     A Quantum Leap Into The Future Of Chemistry


 Q-Chem 6.2 (devel), Q-Chem, Inc., Pleasanton, CA (2024)

 E. Epifanovsky,  A. T. B. Gilbert,  Xintian Feng,  Joonho Lee,  Yuezhi Mao,  
 N. Mardirossian,  P. Pokhilko,  A. White,  M. Wormit,  M. P. Coons,  
 A. L. Dempwolff,  Zhengting Gan,  D. Hait,  P. R. Horn,  L. D. Jacobson,  
 I. Kaliman,  J. Kussmann,  A. W. Lange,  Ka Un Lao,  D. S. Levine,  Jie Liu,  
 S. C. McKenzie,  A. F. Morrison,  K. D. Nanda,  F. Plasser,  D. R. Rehn,  
 M. L. Vidal,  Zhi-Qiang You,  Ying Zhu,  Huseyin Aksu,  B. Alam,  
 B. Albrecht,  A. Aldossary,  E. Alguire,  J. H. Andersen,  
 J. E. Arias-Martinez,  V. Athavale,  D. Barton,  K. Begam,  A. Behn,  
 N. Bellonzi,  Y. A. Bernard,  E. J. Berquist,  H. Burton,  A. Carreras,  
 K. Carter-Fenk,  Mathew Chow,  Romit Chakraborty,  Chandrima Chakravarty,  
 Junhan Chen,  A. D. Chien,  K. D. Closser,  V. Cofer-Shabica,  L. Cunha,  
 S. Dasgupta,  Jia Deng,  Joseph Dickinson,  M. de Wergifosse,  
 M. Diedenhofen,  Hainam Do,  Wenjie Dou,  S. Ehlert,  Po-Tung Fang,  
 S. Fatehi,  Qingguo Feng,  Jonathan Fetherolf,  T. Friedhoff,  
 Thomas Froitzheim,  Sarai Folkestad,  B. Ganoe,  J. Gayvert,  Qinghui Ge,  
 G. Gidofalvi,  M. Gimferrer,  M. Goldey,  Montgomery Gray,  J. Gomes,  
 C. Gonzalez-Espinoza,  S. Gulania,  A. Gunina,  J. A. Gyamfi,  
 M. W. D. Hanson-Heine,  P. H. P. Harbach,  A. W. Hauser,  M. F. Herbst,  
 M. Hernandez Vera,  M. Hodecker,  Z. C. Holden,  S. Houck,  Xunkun Huang,  
 Kerwin Hui,  B. C. Huynh,  K. Ikeda,  M. Ivanov,  Nayanthara K. Jayadev,  
 Hyunjun Ji,  Zuxin Jin,  Hanjie Jiang,  Subrata Jana,  B. Kaduk,  
 S. Kaehler,  R. Kang,  K. Khistyaev,  Jaehoon Kim,  Yongbin Kim,  
 P. Klunzinger,  Z. Koczor-Benda,  Joong Hoon Koh,  D. Kosenkov,  
 Saikiran Kotaru,  L. Koulias,  T. Kowalczyk,  C. M. Krauter,  K. Kue,  
 A. Kunitsa,  T. Kus,  A. Landau,  K. V. Lawler,  D. Lefrancois,  S. Lehtola,  
 Rain Li,  Shaozhi Li,  Tao E. Li,  Yi-Pei Li,  Jiashu Liang,  M. Liebenthal,  
 Hung-Hsuan Lin,  You-Sheng Lin,  Fenglai Liu,  Kuan-Yu Liu,  Xiao Liu,  
 M. Loipersberger,  A. Luenser,  C. Malbon,  Aniket Mandal,  Manisha,  
 A. Manjanath,  P. Manohar,  E. Mansoor,  S. F. Manzer,  Shan-Ping Mao,  
 A. V. Marenich,  T. Markovich,  S. Mason,  F. Matz,  S. A. Maurer,  
 Samuel May,  Alexandra McIsaac,  P. F. McLaughlin,  M. F. S. J. Menger,  
 J.-M. Mewes,  S. A. Mewes,  P. Morgante,  Mohammad Mostafanejad,  
 Madhubani Mukherjee,  J. W. Mullinax,  Quyen Nguyen,  Avik Kumar Ojha,  
 K. J. Oosterbaan,  Eno Paenurk,  Xiaoliang Pan,  G. Paran,  V. Parravicini,  
 Alexander C. Paul,  Suranjan K. Paul,  F. Pavosevic,  Zheng Pei,  S. Prager,  
 E. I. Proynov,  E. Ramos,  B. Rana,  A. E. Rask,  A. Rettig,  R. M. Richard,  
 F. Rob,  E. Rossomme,  T. Scheele,  M. Scheurer,  M. Schneider,  
 P. E. Schneider,  Tim K. Schramm,  N. Sergueev,  S. M. Sharada,  
 Hengyuan Shen,  W. Skomorowski,  D. W. Small,  C. J. Stein,  
 Alistair J. Sterling,  Yingli Su,  Yu-Chuan Su,  E. J. Sundstrom,  
 J. Talbot,  Zhen Tao,  J. Thirman,  Hung-Yi Tsai,  T. Tsuchimochi,  
 N. M. Tubman,  C. Utku,  S. P. Veccham,  O. Vydrov,  Rahel Weiss,  
 J. Wenzel,  Jonathan Wong,  J. Witte,  H. Wu,  Yanze Wu,  A. Yamada,  
 Chou-Hsun Yang,  Kun Yao,  S. Yeganeh,  S. R. Yost,  Qi Yu,  A. Zech,  
 F. Zeller,  Chongxiao Zhao,  Igor Ying Zhang,  Xing Zhang,  Yu Zhang,  
 D. Zuev,  A. Aspuru-Guzik,  A. T. Bell,  N. A. Besley,  K. B. Bravaya,  
 B. R. Brooks,  D. Casanova,  Jeng-Da Chai,  Hsing-Ta Chen,  S. Coriani,  
 C. J. Cramer,  A. E. DePrince, III,  R. A. DiStasio Jr.,  A. Dreuw,  
 B. D. Dunietz,  T. R. Furlani,  W. A. Goddard III,  S. Grimme,  
 S. Hammes-Schiffer,  T. Head-Gordon,  W. J. Hehre,  Chao-Ping Hsu,  
 T.-C. Jagau,  Yousung Jung,  A. Klamt,  Jing Kong,  D. S. Lambrecht,  
 Xiangyuan Li,  WanZhen Liang,  N. J. Mayhall,  C. W. McCurdy,  J. B. Neaton,  
 T. Neudecker,  C. Ochsenfeld,  J. A. Parkhill,  R. Peverati,  
 V. A. Rassolov,  Haisheng Ren,  Yihan Shao,  L. V. Slipchenko,  
 R. P. Steele,  J. E. Subotnik,  A. J. W. Thom,  A. Tkatchenko,  
 D. G. Truhlar,  T. Van Voorhis,  Fan Wang,  T. A. Wesolowski,  K. B. Whaley,  
 H. L. Woodcock III,  P. M. Zimmerman,  S. Faraji,  P. M. W. Gill,  
 M. Head-Gordon,  J. M. Herbert,  A. I. Krylov

 Contributors to earlier versions of Q-Chem not listed above: 
 R. D. Adamson,  B. Austin,  R. Baer,  J. Baker,  G. J. O. Beran,  
 K. Brandhorst,  S. T. Brown,  E. F. C. Byrd,  Arup K. Chakraborty,  
 G. K. L. Chan,  Chun-Min Chang,  Yunqing Chen,  C.-L. Cheng,  
 Siu Hung Chien,  D. M. Chipman,  D. L. Crittenden,  H. Dachsel,  
 R. J. Doerksen,  A. D. Dutoi,  R. G. Edgar,  J. Fosso-Tande,  
 L. Fusti-Molnar,  D. Ghosh,  A. Ghysels,  A. Golubeva-Zadorozhnaya,  
 J. Gonthier,  M. S. Gordon,  S. R. Gwaltney,  G. Hawkins,  J. E. Herr,  
 A. Heyden,  S. Hirata,  E. G. Hohenstein,  G. Kedziora,  F. J. Keil,  
 C. Kelley,  Jihan Kim,  R. A. King,  R. Z. Khaliullin,  P. P. Korambath,  
 W. Kurlancheek,  A. Laurent,  A. M. Lee,  M. S. Lee,  S. V. Levchenko,  
 Ching Yeh Lin,  D. Liotard,  E. Livshits,  R. C. Lochan,  I. Lotan,  
 L. A. Martinez-Martinez,  P. E. Maslen,  N. Nair,  D. P. O'Neill,  
 D. Neuhauser,  E. Neuscamman,  C. M. Oana,  R. Olivares-Amaya,  R. Olson,  
 T. M. Perrine,  B. Peters,  P. A. Pieniazek,  A. Prociuk,  Y. M. Rhee,  
 J. Ritchie,  M. A. Rohrdanz,  E. Rosta,  N. J. Russ,  H. F. Schaefer III,  
 M. W. Schmidt,  N. E. Schultz,  S. Sharma,  N. Shenvi,  C. D. Sherrill,  
 A. C. Simmonett,  A. Sodt,  T. Stein,  D. Stuck,  K. S. Thanthiriwatte,  
 V. Vanovschi,  L. Vogt,  Tao Wang,  A. Warshel,  M. A. Watson,  
 C. F. Williams,  Q. Wu,  X. Xu,  Jun Yang,  W. Zhang,  Yan Zhao

   Please cite Q-Chem as follows:
  "Software for the frontiers of quantum chemistry:
   An overview of developments in the Q-Chem 5 package"
   J. Chem. Phys. 155, 084801 (2021)
   https://doi.org/10.1063/5.0055522 (open access)

 Q-Chem 6.2.2 for Intel X86 EM64T Linux

 Parts of Q-Chem use Armadillo 9.900.5 (Nocturnal Misbehaviour).
 http://arma.sourceforge.net/

 Q-Chem begins on Thu Dec 19 17:08:25 2024  

 Host: compute-0-15.local
0

     Scratch files written to /scratch/keith/A0D0_1//
 Processing $rem in /home/keith/software/qchem/qchem_622/config/preferences:
 Processing $rem in /home/keith/.qchemrc:

 Checking the input file for inconsistencies... 	...done.

--------------------------------------------------------------
User input:
--------------------------------------------------------------
$molecule
read
$end

$rem
method                    b3lyp 
basis                     cc-pv5z 
mem_total                 63000
mem_static                8000
thresh                    12
scf_convergence           8
xc_grid                   000075000302
max_scf_cycles            2000
symmetry                  false
sym_ignore                true
scf_guess                 read
mom_start                 1
cis_n_roots               100
cis_triplets              false
rpa                       false 
trnss                     true
trtype                    2
n_sol                     49
nto_pairs                 2
gui                       2
print_orbitals            true
state_analysis            true
$end

$solute 
1 528 529 530 531 532 533 534 535 536 537 538 539 540 541 542 543 544 545 546 547 548 549 550 551 552 553 554 555 556 557 558 559 560 561 562 563 564 565 566 567 568 569 570 571 572 573 574 575
$end
--------------------------------------------------------------
 ----------------------------------------------------------------
             Standard Nuclear Orientation (Angstroms)
    I     Atom           X                Y                Z
 ----------------------------------------------------------------
    1      O      -1.0312200000     0.4068400000     0.2480400000
    2      O      -0.2835200000    -3.0021600000     0.6456400000
    3      H      -0.5051200000    -2.1381600000     0.3506400000
    4      H      -0.4955200000    -3.6541600000    -0.0441600000
    5      H      -1.6510200000     0.5918400000    -0.4868600000
    6      H      -0.7853200000     1.2658400000     0.5996400000
    7      O       1.3931800000     2.5789400000    -0.8480600000
    8      H       0.5008800000     2.1761400000    -0.9688600000
    9      H       1.6911800000     2.0182400000    -0.1742600000
 ----------------------------------------------------------------
 Nuclear Repulsion Energy =          67.60410860 hartrees
 There are       15 alpha and       15 beta electrons
 Requested basis set is cc-pV5Z
 There are 153 shells and 603 basis functions

 Total QAlloc Memory Limit  63000 MB
 Mega-Array Size      7821 MB
 MEM_STATIC part      8000 MB


                       Distance Matrix (Angstroms)
             O (  1)   O (  2)   H (  3)   H (  4)   H (  5)   H (  6)
   O (  2)  3.512609
   H (  3)  2.600833  0.939483
   H (  4)  4.106589  0.972560  1.566594
   H (  5)  0.979007  4.008672  3.076913  4.422633
   H (  6)  0.960193  4.297644  3.424577  4.970399  1.544084
   O (  7)  3.434701  6.015907  5.224123  6.562391  3.653243  2.926761
   H (  8)  2.637916  5.480573  4.622370  5.986675  2.715328  2.223319
   H (  9)  3.191615  5.456747  4.730213  6.080683  3.647278  2.701496
             O (  7)   H (  8)
   H (  8)  0.986428
   H (  9)  0.925848  1.439839

 A cutoff of  1.0D-12 yielded   8303 shell pairs
 There are    115729 function pairs (    195541 Cartesian)
 Smallest overlap matrix eigenvalue = 4.32E-05

 Scale SEOQF with 1.000000e-01/1.000000e-01/1.000000e+00

 Standard Electronic Orientation quadrupole field applied
 Nucleus-field energy     =     0.0000000001 hartrees
 Guess MOs from SCF MO coefficient file

 -----------------------------------------------------------------------
  General SCF calculation program by
  Eric Jon Sundstrom, Paul Horn, Yuezhi Mao, Dmitri Zuev, Alec White,
  David Stuck, Shaama M.S., Shane Yost, Joonho Lee, David Small,
  Daniel Levine, Susi Lehtola, Hugh Burton, Evgeny Epifanovsky,
  Bang C. Huynh
 -----------------------------------------------------------------------
 Exchange:     0.2000 Hartree-Fock + 0.0800 Slater + 0.7200 B88
 Correlation:  0.1900 VWN1RPA + 0.8100 LYP
 Using Euler-Maclaurin-Lebedev (75,302) quadrature formula
 A restricted SCF calculation will be
 performed using DIIS
 SCF converges when DIIS error is below 1.0e-08
 ---------------------------------------
  Cycle       Energy         DIIS error
 ---------------------------------------
Maximum Overlap Method Active
 MOM overlap:    15.0 / 15
    1    -229.4185271435      3.87e-10  
    2    -229.4185271435      1.98e-10  Convergence criterion met
Maximum Overlap Method Active
 MOM overlap:    15.00 / 15
 ---------------------------------------
 SCF time:   CPU 1508.31s  wall 96.00s 
 SCF   energy =  -229.41852714
 Total energy =  -229.41852714
 MAX_CIS_SUBSPACE fits in available memory
 Direct TDDFT/TDA calculation will be performed
 Exchange:     0.2000 Hartree-Fock + 0.0800 Slater + 0.7200 B88
 Correlation:  0.1900 VWN1RPA + 0.8100 LYP
 Using Euler-Maclaurin-Lebedev (75,302) quadrature formula
 Singlet excitation energies requested
 CIS energy converged when residual is below 10e- 6
   
 ***Using a Restricted Set of Single Excitations***
   
 RCIS calculation
   
 Excitations limited to defined orbital subspace
 -------------------------------------------------------------
              Orbitals in Truncated CIS space
 -------------------------------------------------------------
     1 528 529 530 531 532 533 534 535 536 537 538 539 540 541
   542 543 544 545 546 547 548 549 550 551 552 553 554 555 556
   557 558 559 560 561 562 563 564 565 566 567 568 569 570 571
   572 573 574 575
   
    Number of Occupied Orbitals =    1  out of    15
    Number of Virtual Orbitals  =   48  out of   588
 -------------------------------------------------------------
 Number of Roots adjusted to:          48
 ---------------------------------------------------
 Iter    Rts Conv    Rts Left    Ttl Dev     Max Dev
 ---------------------------------------------------
   1        48           0      0.015964    0.001153    Roots Converged
 ---------------------------------------------------

 ---------------------------------------------------
         TDDFT/TDA Excitation Energies              
 ---------------------------------------------------

 Excited state   1: excitation energy (eV) =    1014.3111
 Total energy for state   1:                  -192.14328162 au
    Multiplicity: Singlet
    Trans. Mom.:  0.0010 X   0.0002 Y  -0.0018 Z
    Strength   :     0.0001096806
    D(    1) --> V(  513) amplitude =  0.2688
    D(    1) --> V(  516) amplitude =  0.9469

 Excited state   2: excitation energy (eV) =    1015.1427
 Total energy for state   2:                  -192.11272180 au
    Multiplicity: Singlet
    Trans. Mom.: -0.0049 X   0.0093 Y  -0.0061 Z
    Strength   :     0.0036462475
    D(    1) --> V(  513) amplitude = -0.2977
    D(    1) --> V(  517) amplitude =  0.9325

 Excited state   3: excitation energy (eV) =    1019.1076
 Total energy for state   3:                  -191.96701227 au
    Multiplicity: Singlet
    Trans. Mom.: -0.0025 X  -0.0004 Y  -0.0021 Z
    Strength   :     0.0002742838
    D(    1) --> V(  513) amplitude =  0.9111
    D(    1) --> V(  516) amplitude = -0.2481
    D(    1) --> V(  517) amplitude =  0.2611

 Excited state   4: excitation energy (eV) =    1019.3403
 Total energy for state   4:                  -191.95846246 au
    Multiplicity: Singlet
    Trans. Mom.: -0.0002 X  -0.0002 Y  -0.0004 Z
    Strength   :     0.0000053163
    D(    1) --> V(  514) amplitude =  0.9988

 Excited state   5: excitation energy (eV) =    1019.8006
 Total energy for state   5:                  -191.94154682 au
    Multiplicity: Singlet
    Trans. Mom.: -0.0007 X   0.0005 Y  -0.0008 Z
    Strength   :     0.0000346495
    D(    1) --> V(  515) amplitude =  0.9491
    D(    1) --> V(  517) amplitude =  0.2329

 Excited state   6: excitation energy (eV) =    1021.0389
 Total energy for state   6:                  -191.89603975 au
    Multiplicity: Singlet
    Trans. Mom.: -0.0136 X  -0.0142 Y  -0.0166 Z
    Strength   :     0.0166138601
    D(    1) --> V(  520) amplitude =  0.9961

 Excited state   7: excitation energy (eV) =    1023.1859
 Total energy for state   7:                  -191.81713855 au
    Multiplicity: Singlet
    Trans. Mom.: -0.0006 X  -0.0000 Y  -0.0005 Z
    Strength   :     0.0000136924
    D(    1) --> V(  518) amplitude =  0.9995

 Excited state   8: excitation energy (eV) =    1024.8891
 Total energy for state   8:                  -191.75454576 au
    Multiplicity: Singlet
    Trans. Mom.:  0.0004 X   0.0007 Y  -0.0003 Z
    Strength   :     0.0000212715
    D(    1) --> V(  519) amplitude =  0.9995

 Excited state   9: excitation energy (eV) =    1026.7318
 Total energy for state   9:                  -191.68683092 au
    Multiplicity: Singlet
    Trans. Mom.: -0.0001 X   0.0004 Y   0.0004 Z
    Strength   :     0.0000097263
    D(    1) --> V(  523) amplitude =  0.9984

 Excited state  10: excitation energy (eV) =    1028.5754
 Total energy for state  10:                  -191.61907679 au
    Multiplicity: Singlet
    Trans. Mom.:  0.0008 X   0.0048 Y   0.0011 Z
    Strength   :     0.0006246346
    D(    1) --> V(  521) amplitude =  0.8374
    D(    1) --> V(  524) amplitude =  0.4754

 Excited state  11: excitation energy (eV) =    1028.7055
 Total energy for state  11:                  -191.61429799 au
    Multiplicity: Singlet
    Trans. Mom.:  0.0002 X   0.0067 Y   0.0004 Z
    Strength   :     0.0011381696
    D(    1) --> V(  521) amplitude = -0.5437
    D(    1) --> V(  522) amplitude =  0.2892
    D(    1) --> V(  524) amplitude =  0.7216
    D(    1) --> V(  525) amplitude =  0.2981

 Excited state  12: excitation energy (eV) =    1029.6719
 Total energy for state  12:                  -191.57878284 au
    Multiplicity: Singlet
    Trans. Mom.: -0.0003 X  -0.0013 Y  -0.0004 Z
    Strength   :     0.0000465742
    D(    1) --> V(  522) amplitude =  0.9416
    D(    1) --> V(  524) amplitude = -0.3058

 Excited state  13: excitation energy (eV) =    1033.6193
 Total energy for state  13:                  -191.43371806 au
    Multiplicity: Singlet
    Trans. Mom.:  0.0002 X  -0.0005 Y   0.0001 Z
    Strength   :     0.0000093213
    D(    1) --> V(  524) amplitude = -0.3836
    D(    1) --> V(  525) amplitude =  0.9231

 Excited state  14: excitation energy (eV) =    1033.8716
 Total energy for state  14:                  -191.42444487 au
    Multiplicity: Singlet
    Trans. Mom.: -0.0001 X   0.0006 Y   0.0003 Z
    Strength   :     0.0000102584
    D(    1) --> V(  526) amplitude =  0.9941

 Excited state  15: excitation energy (eV) =    1037.5317
 Total energy for state  15:                  -191.28994156 au
    Multiplicity: Singlet
    Trans. Mom.: -0.0011 X  -0.0027 Y  -0.0017 Z
    Strength   :     0.0002876635
    D(    1) --> V(  527) amplitude = -0.6265
    D(    1) --> V(  529) amplitude =  0.2422
    D(    1) --> V(  530) amplitude =  0.7232

 Excited state  16: excitation energy (eV) =    1037.7031
 Total energy for state  16:                  -191.28364109 au
    Multiplicity: Singlet
    Trans. Mom.: -0.0010 X  -0.0017 Y  -0.0011 Z
    Strength   :     0.0001286236
    D(    1) --> V(  527) amplitude =  0.7756
    D(    1) --> V(  529) amplitude =  0.2293
    D(    1) --> V(  530) amplitude =  0.5739

 Excited state  17: excitation energy (eV) =    1037.9794
 Total energy for state  17:                  -191.27348685 au
    Multiplicity: Singlet
    Trans. Mom.:  0.0000 X   0.0000 Y   0.0000 Z
    Strength   :     0.0000000172
    D(    1) --> V(  528) amplitude =  0.9999

 Excited state  18: excitation energy (eV) =    1038.2303
 Total energy for state  18:                  -191.26426672 au
    Multiplicity: Singlet
    Trans. Mom.:  0.0005 X   0.0013 Y   0.0004 Z
    Strength   :     0.0000554490
    D(    1) --> V(  529) amplitude =  0.9384
    D(    1) --> V(  530) amplitude = -0.3279

 Excited state  19: excitation energy (eV) =    1039.4192
 Total energy for state  19:                  -191.22057522 au
    Multiplicity: Singlet
    Trans. Mom.:  0.0019 X   0.0003 Y  -0.0017 Z
    Strength   :     0.0001714586
    D(    1) --> V(  531) amplitude =  0.9955

 Excited state  20: excitation energy (eV) =    1040.7255
 Total energy for state  20:                  -191.17257021 au
    Multiplicity: Singlet
    Trans. Mom.: -0.0028 X  -0.0000 Y   0.0029 Z
    Strength   :     0.0004050295
    D(    1) --> V(  532) amplitude =  0.9519
    D(    1) --> V(  533) amplitude =  0.2210

 Excited state  21: excitation energy (eV) =    1041.8526
 Total energy for state  21:                  -191.13114996 au
    Multiplicity: Singlet
    Trans. Mom.: -0.0026 X   0.0000 Y  -0.0018 Z
    Strength   :     0.0002590306
    D(    1) --> V(  532) amplitude = -0.2374
    D(    1) --> V(  533) amplitude =  0.9398

 Excited state  22: excitation energy (eV) =    1047.7485
 Total energy for state  22:                  -190.91447874 au
    Multiplicity: Singlet
    Trans. Mom.:  0.0026 X   0.0013 Y   0.0021 Z
    Strength   :     0.0003286659
    D(    1) --> V(  534) amplitude =  0.8893
    D(    1) --> V(  538) amplitude =  0.3863

 Excited state  23: excitation energy (eV) =    1047.7959
 Total energy for state  23:                  -190.91273673 au
    Multiplicity: Singlet
    Trans. Mom.:  0.0044 X   0.0028 Y   0.0056 Z
    Strength   :     0.0014984701
    D(    1) --> V(  534) amplitude = -0.4275
    D(    1) --> V(  538) amplitude =  0.8254

 Excited state  24: excitation energy (eV) =    1048.5494
 Total energy for state  24:                  -190.88504567 au
    Multiplicity: Singlet
    Trans. Mom.:  0.0020 X   0.0003 Y  -0.0000 Z
    Strength   :     0.0001037450
    D(    1) --> V(  535) amplitude =  0.9537

 Excited state  25: excitation energy (eV) =    1048.9062
 Total energy for state  25:                  -190.87193571 au
    Multiplicity: Singlet
    Trans. Mom.:  0.0012 X   0.0008 Y   0.0011 Z
    Strength   :     0.0000825733
    D(    1) --> V(  536) amplitude =  0.9721

 Excited state  26: excitation energy (eV) =    1049.4327
 Total energy for state  26:                  -190.85258501 au
    Multiplicity: Singlet
    Trans. Mom.: -0.0088 X  -0.0004 Y   0.0078 Z
    Strength   :     0.0035423034
    D(    1) --> V(  541) amplitude = -0.3648
    D(    1) --> V(  542) amplitude =  0.9024

 Excited state  27: excitation energy (eV) =    1051.9114
 Total energy for state  27:                  -190.76149713 au
    Multiplicity: Singlet
    Trans. Mom.:  0.0009 X   0.0001 Y  -0.0008 Z
    Strength   :     0.0000357142
    D(    1) --> V(  537) amplitude =  0.9924

 Excited state  28: excitation energy (eV) =    1054.4715
 Total energy for state  28:                  -190.66741278 au
    Multiplicity: Singlet
    Trans. Mom.:  0.0001 X   0.0000 Y  -0.0004 Z
    Strength   :     0.0000049988
    D(    1) --> V(  539) amplitude =  0.9868

 Excited state  29: excitation energy (eV) =    1054.9720
 Total energy for state  29:                  -190.64902292 au
    Multiplicity: Singlet
    Trans. Mom.: -0.0002 X  -0.0002 Y  -0.0002 Z
    Strength   :     0.0000036223
    D(    1) --> V(  540) amplitude =  0.9768

 Excited state  30: excitation energy (eV) =    1055.2571
 Total energy for state  30:                  -190.63854400 au
    Multiplicity: Singlet
    Trans. Mom.:  0.0001 X   0.0002 Y   0.0006 Z
    Strength   :     0.0000125566
    D(    1) --> V(  538) amplitude = -0.2280
    D(    1) --> V(  541) amplitude =  0.8888
    D(    1) --> V(  542) amplitude =  0.3667

 Excited state  31: excitation energy (eV) =    1058.7843
 Total energy for state  31:                  -190.50892165 au
    Multiplicity: Singlet
    Trans. Mom.: -0.0000 X   0.0005 Y   0.0004 Z
    Strength   :     0.0000107161
    D(    1) --> V(  543) amplitude =  0.9987

 Excited state  32: excitation energy (eV) =    1060.1569
 Total energy for state  32:                  -190.45847982 au
    Multiplicity: Singlet
    Trans. Mom.: -0.0000 X  -0.0002 Y  -0.0000 Z
    Strength   :     0.0000009764
    D(    1) --> V(  544) amplitude =  0.9998

 Excited state  33: excitation energy (eV) =    1061.2354
 Total energy for state  33:                  -190.41884387 au
    Multiplicity: Singlet
    Trans. Mom.: -0.0001 X  -0.0000 Y  -0.0000 Z
    Strength   :     0.0000001398
    D(    1) --> V(  545) amplitude =  1.0000

 Excited state  34: excitation energy (eV) =    1063.0258
 Total energy for state  34:                  -190.35305110 au
    Multiplicity: Singlet
    Trans. Mom.:  0.0004 X   0.0000 Y   0.0002 Z
    Strength   :     0.0000050341
    D(    1) --> V(  546) amplitude =  0.9998

 Excited state  35: excitation energy (eV) =    1074.3204
 Total energy for state  35:                  -189.93798158 au
    Multiplicity: Singlet
    Trans. Mom.:  0.0074 X  -0.0121 Y   0.0075 Z
    Strength   :     0.0067939759
    D(    1) --> V(  547) amplitude =  0.9959

 Excited state  36: excitation energy (eV) =    1080.6655
 Total energy for state  36:                  -189.70480351 au
    Multiplicity: Singlet
    Trans. Mom.:  0.0123 X   0.0117 Y   0.0158 Z
    Strength   :     0.0141795378
    D(    1) --> V(  550) amplitude =  0.9915

 Excited state  37: excitation energy (eV) =    1083.9634
 Total energy for state  37:                  -189.58360594 au
    Multiplicity: Singlet
    Trans. Mom.: -0.0010 X  -0.0005 Y  -0.0007 Z
    Strength   :     0.0000422494
    D(    1) --> V(  548) amplitude =  0.9864

 Excited state  38: excitation energy (eV) =    1084.1049
 Total energy for state  38:                  -189.57840786 au
    Multiplicity: Singlet
    Trans. Mom.: -0.0005 X   0.0001 Y  -0.0009 Z
    Strength   :     0.0000282994
    D(    1) --> V(  549) amplitude =  0.9877

 Excited state  39: excitation energy (eV) =    1090.9558
 Total energy for state  39:                  -189.32664239 au
    Multiplicity: Singlet
    Trans. Mom.:  0.0001 X  -0.0002 Y  -0.0001 Z
    Strength   :     0.0000012639
    D(    1) --> V(  551) amplitude =  1.0000

 Excited state  40: excitation energy (eV) =    1093.3599
 Total energy for state  40:                  -189.23829122 au
    Multiplicity: Singlet
    Trans. Mom.: -0.0003 X   0.0002 Y  -0.0001 Z
    Strength   :     0.0000038098
    D(    1) --> V(  552) amplitude =  1.0000

 Excited state  41: excitation energy (eV) =    1106.6071
 Total energy for state  41:                  -188.75146609 au
    Multiplicity: Singlet
    Trans. Mom.: -0.0118 X  -0.0020 Y   0.0106 Z
    Strength   :     0.0069396304
    D(    1) --> V(  553) amplitude = -0.2805
    D(    1) --> V(  555) amplitude =  0.8920
    D(    1) --> V(  556) amplitude = -0.2682

 Excited state  42: excitation energy (eV) =    1110.8248
 Total energy for state  42:                  -188.59646917 au
    Multiplicity: Singlet
    Trans. Mom.:  0.0062 X  -0.0183 Y   0.0051 Z
    Strength   :     0.0108178438
    D(    1) --> V(  556) amplitude = -0.4415
    D(    1) --> V(  557) amplitude = -0.3503
    D(    1) --> V(  558) amplitude =  0.7965

 Excited state  43: excitation energy (eV) =    1114.2542
 Total energy for state  43:                  -188.47043934 au
    Multiplicity: Singlet
    Trans. Mom.: -0.0003 X   0.0001 Y   0.0003 Z
    Strength   :     0.0000062051
    D(    1) --> V(  553) amplitude =  0.9588
    D(    1) --> V(  555) amplitude =  0.2615

 Excited state  44: excitation energy (eV) =    1114.9198
 Total energy for state  44:                  -188.44598080 au
    Multiplicity: Singlet
    Trans. Mom.: -0.0001 X   0.0010 Y  -0.0005 Z
    Strength   :     0.0000364796
    D(    1) --> V(  554) amplitude =  0.9548

 Excited state  45: excitation energy (eV) =    1116.0779
 Total energy for state  45:                  -188.40342167 au
    Multiplicity: Singlet
    Trans. Mom.:  0.0009 X  -0.0010 Y   0.0006 Z
    Strength   :     0.0000621925
    D(    1) --> V(  555) amplitude =  0.2457
    D(    1) --> V(  556) amplitude =  0.7962
    D(    1) --> V(  557) amplitude = -0.4808
    D(    1) --> V(  558) amplitude =  0.2710

 Excited state  46: excitation energy (eV) =    1116.5828
 Total energy for state  46:                  -188.38486737 au
    Multiplicity: Singlet
    Trans. Mom.:  0.0006 X  -0.0013 Y   0.0006 Z
    Strength   :     0.0000632338
    D(    1) --> V(  556) amplitude =  0.2556
    D(    1) --> V(  557) amplitude =  0.7991
    D(    1) --> V(  558) amplitude =  0.5197

 Excited state  47: excitation energy (eV) =    1123.3798
 Total energy for state  47:                  -188.13508163 au
    Multiplicity: Singlet
    Trans. Mom.: -0.0000 X   0.0001 Y  -0.0000 Z
    Strength   :     0.0000002925
    D(    1) --> V(  559) amplitude = -0.5100
    D(    1) --> V(  560) amplitude =  0.8600

 Excited state  48: excitation energy (eV) =    1125.2903
 Total energy for state  48:                  -188.06487181 au
    Multiplicity: Singlet
    Trans. Mom.: -0.0000 X  -0.0002 Y  -0.0000 Z
    Strength   :     0.0000010883
    D(    1) --> V(  559) amplitude =  0.8601
    D(    1) --> V(  560) amplitude =  0.5100

 ---------------------------------------------------
  SETman timing summary (seconds)
  CPU time              6209.49s
  System time              0.00s
  Wall time              395.66s
================================================================================
                             Excited State Analysis
================================================================================

  Ground State (Reference) :
  -------------------------
    NOs
      Occupation of frontier NOs:
         0.0000   0.0000   2.0000   2.0000
      Number of electrons: 30.000000
      Number of unpaired electrons: n_u =  0.00000, n_u,nl =  0.00000
    
    Mulliken Population Analysis (State DM)
    Atom      Charge (e)
    --------------------
     1 O       -0.593636
     2 O       -0.600206
     3 H        0.315312
     4 H        0.280041
     5 H        0.302853
     6 H        0.300974
     7 O       -0.600248
     8 H        0.302679
     9 H        0.292230
    --------------------
    Sum:        0.000000
    
    Multipole moment analysis of the density matrix
      Molecular charge:                      0.000000
      Number of electrons:                   30.000000
        Center of electronic charge [Ang]: [ -0.004663,   0.000061,  -0.003051]
      Total nuclear charge:                  30.000000
        Center of nuclear charge [Ang]:    [ -0.020580,   0.004290,  -0.011963]
      Dipole moment [D]:                     2.698305
        Cartesian components [D]:          [ -2.293551,   0.609429,  -1.284161]
      RMS size of the density [Ang]:         2.661017
        Cartesian components [Ang]:        [  1.091527,   2.314871,   0.728665]
    

  ----------------------------------------------------------------------------
                  Analysis of Unrelaxed Density Matrices
  ----------------------------------------------------------------------------

  Singlet 1 :
  -------------------------
    NOs
      Occupation of frontier NOs:
         0.0000   1.0000   1.0000   2.0000
      Number of electrons: 30.000000
      Number of unpaired electrons: n_u =  2.00000, n_u,nl =  2.00000
      NO participation ratio (PR_NO):  2.000000
    
    NDOs
      Leading detachment eigenvalues:
        -1.0000  -0.0000
      Leading attachment eigenvalues:
         1.0000   0.0000
      Number of detached / attached electrons: p_D =  1.0000, p_A =  1.0000
      Number of involved orbitals: PR_D =  1.000000, PR_A =  1.000000
    
    Mulliken Population Analysis (State/Difference DM)
    Atom      Charge (e)              h+              e-           Del q
    --------------------------------------------------------------------
     1 O       -0.549906        0.993817       -0.950088        0.043729
     2 O       -0.623402        0.000000       -0.023195       -0.023195
     3 H        0.313478       -0.000003       -0.001832       -0.001834
     4 H        0.277090        0.000000       -0.002951       -0.002951
     5 H        0.298085        0.002713       -0.007481       -0.004768
     6 H        0.294141        0.003473       -0.010306       -0.006834
     7 O       -0.602067       -0.000000       -0.001819       -0.001819
     8 H        0.301343       -0.000000       -0.001336       -0.001336
     9 H        0.291238        0.000000       -0.000993       -0.000993
    --------------------------------------------------------------------
    Sum:        0.000000        1.000000       -1.000000        0.000000
    
    Multipole moment analysis of the density matrix
      Molecular charge:                      0.000000
      Number of electrons:                   30.000000
        Center of electronic charge [Ang]: [ -0.003747,  -0.001307,  -0.002991]
      Total nuclear charge:                  30.000000
        Center of nuclear charge [Ang]:    [ -0.020580,   0.004290,  -0.011963]
      Dipole moment [D]:                     2.864484
        Cartesian components [D]:          [ -2.425578,   0.806512,  -1.292817]
      RMS size of the density [Ang]:         2.664719
        Cartesian components [Ang]:        [  1.092707,   2.317886,   0.730835]
    
    Exciton analysis of the difference density matrix
      <r_h> [Ang]:                  [ -1.031268,   0.406989,   0.247986]
      <r_e> [Ang]:                  [ -1.003781,   0.365957,   0.249788]
      |<r_e - r_h>| [Ang]:            0.049421
      Hole size [Ang]:                0.122770
        Cartesian components [Ang]: [  0.070877,   0.070885,   0.070881]
      Electron size [Ang]:            0.832520
        Cartesian components [Ang]: [  0.371534,   0.675216,   0.314858]

  Singlet 2 :
  -------------------------
    NOs
      Occupation of frontier NOs:
         0.0000   1.0000   1.0000   2.0000
      Number of electrons: 30.000000
      Number of unpaired electrons: n_u =  2.00000, n_u,nl =  2.00000
      NO participation ratio (PR_NO):  2.000000
    
    NDOs
      Leading detachment eigenvalues:
        -1.0000  -0.0000
      Leading attachment eigenvalues:
         1.0000   0.0000
      Number of detached / attached electrons: p_D =  1.0000, p_A =  1.0000
      Number of involved orbitals: PR_D =  1.000000, PR_A =  1.000000
    
    Mulliken Population Analysis (State/Difference DM)
    Atom      Charge (e)              h+              e-           Del q
    --------------------------------------------------------------------
     1 O       -0.523146        0.993817       -0.923327        0.070490
     2 O       -0.619874        0.000000       -0.019668       -0.019668
     3 H        0.313270       -0.000003       -0.002040       -0.002043
     4 H        0.277527        0.000000       -0.002513       -0.002513
     5 H        0.273616        0.002713       -0.031950       -0.029237
     6 H        0.292697        0.003473       -0.011751       -0.008278
     7 O       -0.605446       -0.000000       -0.005197       -0.005197
     8 H        0.300103       -0.000000       -0.002576       -0.002576
     9 H        0.291252        0.000000       -0.000978       -0.000978
    --------------------------------------------------------------------
    Sum:       -0.000000        1.000000       -1.000000       -0.000000
    
    Multipole moment analysis of the density matrix
      Molecular charge:                      -0.000000
      Number of electrons:                   30.000000
        Center of electronic charge [Ang]: [ -0.004006,  -0.001776,  -0.003639]
      Total nuclear charge:                  30.000000
        Center of nuclear charge [Ang]:    [ -0.020580,   0.004290,  -0.011963]
      Dipole moment [D]:                     2.811873
        Cartesian components [D]:          [ -2.388290,   0.874067,  -1.199461]
      RMS size of the density [Ang]:         2.664830
        Cartesian components [Ang]:        [  1.093415,   2.317607,   0.731068]
    
    Exciton analysis of the difference density matrix
      <r_h> [Ang]:                  [ -1.031268,   0.406989,   0.247986]
      <r_e> [Ang]:                  [ -1.011544,   0.351892,   0.230352]
      |<r_e - r_h>| [Ang]:            0.061120
      Hole size [Ang]:                0.122770
        Cartesian components [Ang]: [  0.070877,   0.070885,   0.070881]
      Electron size [Ang]:            0.845488
        Cartesian components [Ang]: [  0.410929,   0.653594,   0.344678]

  Singlet 3 :
  -------------------------
    NOs
      Occupation of frontier NOs:
         0.0000   1.0000   1.0000   2.0000
      Number of electrons: 30.000000
      Number of unpaired electrons: n_u =  2.00000, n_u,nl =  2.00000
      NO participation ratio (PR_NO):  2.000000
    
    NDOs
      Leading detachment eigenvalues:
        -1.0000  -0.0000
      Leading attachment eigenvalues:
         1.0000   0.0000
      Number of detached / attached electrons: p_D =  1.0000, p_A =  1.0000
      Number of involved orbitals: PR_D =  1.000000, PR_A =  1.000000
    
    Mulliken Population Analysis (State/Difference DM)
    Atom      Charge (e)              h+              e-           Del q
    --------------------------------------------------------------------
     1 O        0.387626        0.993817       -0.012555        0.981262
     2 O       -0.611110        0.000000       -0.010903       -0.010903
     3 H        0.314064       -0.000003       -0.001246       -0.001249
     4 H        0.278302        0.000000       -0.001739       -0.001739
     5 H        0.301566        0.002713       -0.004001       -0.001288
     6 H        0.303387        0.003473       -0.001060        0.002412
     7 O       -1.082399       -0.000000       -0.482151       -0.482151
     8 H       -0.044984       -0.000000       -0.347663       -0.347663
     9 H        0.153549        0.000000       -0.138681       -0.138681
    --------------------------------------------------------------------
    Sum:       -0.000000        1.000000       -1.000000       -0.000000
    
    Multipole moment analysis of the density matrix
      Molecular charge:                      -0.000000
      Number of electrons:                   30.000000
        Center of electronic charge [Ang]: [  0.066381,   0.062303,  -0.036647]
      Total nuclear charge:                  30.000000
        Center of nuclear charge [Ang]:    [ -0.020580,   0.004290,  -0.011963]
      Dipole moment [D]:                     15.477428
        Cartesian components [D]:          [-12.530734,  -8.359470,   3.556790]
      RMS size of the density [Ang]:         2.701882
        Cartesian components [Ang]:        [  1.098422,   2.353929,   0.743407]
    
    Exciton analysis of the difference density matrix
      <r_h> [Ang]:                  [ -1.031268,   0.406989,   0.247986]
      <r_e> [Ang]:                  [  1.100056,   2.274263,  -0.759873]
      |<r_e - r_h>| [Ang]:            3.007496
      Hole size [Ang]:                0.122770
        Cartesian components [Ang]: [  0.070877,   0.070885,   0.070881]
      Electron size [Ang]:            1.099377
        Cartesian components [Ang]: [  0.665535,   0.765216,   0.424425]

  Singlet 4 :
  -------------------------
    NOs
      Occupation of frontier NOs:
         0.0000   1.0000   1.0000   2.0000
      Number of electrons: 30.000000
      Number of unpaired electrons: n_u =  2.00000, n_u,nl =  2.00000
      NO participation ratio (PR_NO):  2.000000
    
    NDOs
      Leading detachment eigenvalues:
        -1.0000  -0.0000
      Leading attachment eigenvalues:
         1.0000   0.0000
      Number of detached / attached electrons: p_D =  1.0000, p_A =  1.0000
      Number of involved orbitals: PR_D =  1.000000, PR_A =  1.000000
    
    Mulliken Population Analysis (State/Difference DM)
    Atom      Charge (e)              h+              e-           Del q
    --------------------------------------------------------------------
     1 O        0.399865        0.993817       -0.000316        0.993501
     2 O       -1.581684        0.000000       -0.981478       -0.981478
     3 H        0.304308       -0.000003       -0.011001       -0.011004
     4 H        0.273033        0.000000       -0.007008       -0.007008
     5 H        0.305457        0.002713       -0.000110        0.002604
     6 H        0.304366        0.003473       -0.000081        0.003392
     7 O       -0.600252       -0.000000       -0.000004       -0.000004
     8 H        0.302678       -0.000000       -0.000001       -0.000001
     9 H        0.292230        0.000000       -0.000001       -0.000000
    --------------------------------------------------------------------
    Sum:        0.000000        1.000000       -1.000000        0.000000
    
    Multipole moment analysis of the density matrix
      Molecular charge:                      0.000000
      Number of electrons:                   30.000000
        Center of electronic charge [Ang]: [  0.019576,  -0.112586,   0.008732]
      Total nuclear charge:                  30.000000
        Center of nuclear charge [Ang]:    [ -0.020580,   0.004290,  -0.011963]
      Dipole moment [D]:                     18.055670
        Cartesian components [D]:          [ -5.786334,  16.841382,  -2.982183]
      RMS size of the density [Ang]:         2.710011
        Cartesian components [Ang]:        [  1.078187,   2.374206,   0.738115]
    
    Exciton analysis of the difference density matrix
      <r_h> [Ang]:                  [ -1.031268,   0.406989,   0.247986]
      <r_e> [Ang]:                  [ -0.304090,  -2.972412,   0.601504]
      |<r_e - r_h>| [Ang]:            3.474782
      Hole size [Ang]:                0.122770
        Cartesian components [Ang]: [  0.070877,   0.070885,   0.070881]
      Electron size [Ang]:            0.551117
        Cartesian components [Ang]: [  0.344348,   0.250214,   0.350067]

  Singlet 5 :
  -------------------------
    NOs
      Occupation of frontier NOs:
         0.0000   1.0000   1.0000   2.0000
      Number of electrons: 30.000000
      Number of unpaired electrons: n_u =  2.00000, n_u,nl =  2.00000
      NO participation ratio (PR_NO):  2.000000
    
    NDOs
      Leading detachment eigenvalues:
        -1.0000  -0.0000
      Leading attachment eigenvalues:
         1.0000   0.0000
      Number of detached / attached electrons: p_D =  1.0000, p_A =  1.0000
      Number of involved orbitals: PR_D =  1.000000, PR_A =  1.000000
    
    Mulliken Population Analysis (State/Difference DM)
    Atom      Charge (e)              h+              e-           Del q
    --------------------------------------------------------------------
     1 O        0.396748        0.993817       -0.003433        0.990384
     2 O       -1.516539        0.000000       -0.916332       -0.916332
     3 H        0.289874       -0.000003       -0.025436       -0.025439
     4 H        0.226479        0.000000       -0.053562       -0.053562
     5 H        0.304700        0.002713       -0.000866        0.001847
     6 H        0.304252        0.003473       -0.000195        0.003277
     7 O       -0.600352       -0.000000       -0.000104       -0.000104
     8 H        0.302621       -0.000000       -0.000058       -0.000058
     9 H        0.292217        0.000000       -0.000013       -0.000013
    --------------------------------------------------------------------
    Sum:        0.000000        1.000000       -1.000000        0.000000
    
    Multipole moment analysis of the density matrix
      Molecular charge:                      -0.000000
      Number of electrons:                   30.000000
        Center of electronic charge [Ang]: [  0.019142,  -0.112888,   0.007740]
      Total nuclear charge:                  30.000000
        Center of nuclear charge [Ang]:    [ -0.020580,   0.004290,  -0.011963]
      Dipole moment [D]:                     18.053372
        Cartesian components [D]:          [ -5.723759,  16.884951,  -2.839236]
      RMS size of the density [Ang]:         2.710713
        Cartesian components [Ang]:        [  1.078419,   2.375113,   0.737440]
    
    Exciton analysis of the difference density matrix
      <r_h> [Ang]:                  [ -1.031268,   0.406989,   0.247986]
      <r_e> [Ang]:                  [ -0.317118,  -2.981483,   0.571744]
      |<r_e - r_h>| [Ang]:            3.478012
      Hole size [Ang]:                0.122770
        Cartesian components [Ang]: [  0.070877,   0.070885,   0.070881]
      Electron size [Ang]:            0.625972
        Cartesian components [Ang]: [  0.353478,   0.373934,   0.356465]

  Singlet 6 :
  -------------------------
    NOs
      Occupation of frontier NOs:
         0.0000   1.0000   1.0000   2.0000
      Number of electrons: 30.000000
      Number of unpaired electrons: n_u =  2.00000, n_u,nl =  2.00000
      NO participation ratio (PR_NO):  2.000000
    
    NDOs
      Leading detachment eigenvalues:
        -1.0000  -0.0000
      Leading attachment eigenvalues:
         1.0000   0.0000
      Number of detached / attached electrons: p_D =  1.0000, p_A =  1.0000
      Number of involved orbitals: PR_D =  1.000000, PR_A =  1.000000
    
    Mulliken Population Analysis (State/Difference DM)
    Atom      Charge (e)              h+              e-           Del q
    --------------------------------------------------------------------
     1 O       -0.175698        0.993817       -0.575879        0.417938
     2 O       -0.604150        0.000000       -0.003944       -0.003944
     3 H        0.314941       -0.000003       -0.000369       -0.000372
     4 H        0.279555        0.000000       -0.000486       -0.000486
     5 H        0.154092        0.002713       -0.151475       -0.148762
     6 H        0.044485        0.003473       -0.259963       -0.256490
     7 O       -0.604145       -0.000000       -0.003897       -0.003897
     8 H        0.300908       -0.000000       -0.001771       -0.001771
     9 H        0.290013        0.000000       -0.002217       -0.002217
    --------------------------------------------------------------------
    Sum:       -0.000000        1.000000       -1.000000       -0.000000
    
    Multipole moment analysis of the density matrix
      Molecular charge:                      -0.000000
      Number of electrons:                   30.000000
        Center of electronic charge [Ang]: [ -0.004589,   0.006578,  -0.003627]
      Total nuclear charge:                  30.000000
        Center of nuclear charge [Ang]:    [ -0.020580,   0.004290,  -0.011963]
      Dipole moment [D]:                     2.619417
        Cartesian components [D]:          [ -2.304282,  -0.329757,  -1.201204]
      RMS size of the density [Ang]:         2.666314
        Cartesian components [Ang]:        [  1.094409,   2.318330,   0.732698]
    
    Exciton analysis of the difference density matrix
      <r_h> [Ang]:                  [ -1.031268,   0.406989,   0.247986]
      <r_e> [Ang]:                  [ -1.029034,   0.602522,   0.230715]
      |<r_e - r_h>| [Ang]:            0.196307
      Hole size [Ang]:                0.122770
        Cartesian components [Ang]: [  0.070877,   0.070885,   0.070881]
      Electron size [Ang]:            0.823729
        Cartesian components [Ang]: [  0.445613,   0.538293,   0.436119]

  Singlet 7 :
  -------------------------
    NOs
      Occupation of frontier NOs:
         0.0000   1.0000   1.0000   2.0000
      Number of electrons: 30.000000
      Number of unpaired electrons: n_u =  2.00000, n_u,nl =  2.00000
      NO participation ratio (PR_NO):  2.000000
    
    NDOs
      Leading detachment eigenvalues:
        -1.0000  -0.0000
      Leading attachment eigenvalues:
         1.0000   0.0000
      Number of detached / attached electrons: p_D =  1.0000, p_A =  1.0000
      Number of involved orbitals: PR_D =  1.000000, PR_A =  1.000000
    
    Mulliken Population Analysis (State/Difference DM)
    Atom      Charge (e)              h+              e-           Del q
    --------------------------------------------------------------------
     1 O        0.399018        0.993817       -0.001164        0.992653
     2 O       -0.600249        0.000000       -0.000042       -0.000042
     3 H        0.315306       -0.000003       -0.000004       -0.000007
     4 H        0.280030        0.000000       -0.000011       -0.000011
     5 H        0.305352        0.002713       -0.000214        0.002499
     6 H        0.304051        0.003473       -0.000396        0.003076
     7 O       -1.589528       -0.000000       -0.989280       -0.989280
     8 H        0.301456       -0.000000       -0.001223       -0.001223
     9 H        0.284565        0.000000       -0.007665       -0.007665
    --------------------------------------------------------------------
    Sum:        0.000000        1.000000       -1.000000        0.000000
    
    Multipole moment analysis of the density matrix
      Molecular charge:                      0.000000
      Number of electrons:                   30.000000
        Center of electronic charge [Ang]: [  0.075866,   0.072008,  -0.039304]
      Total nuclear charge:                  30.000000
        Center of nuclear charge [Ang]:    [ -0.020580,   0.004290,  -0.011963]
      Dipole moment [D]:                     17.432077
        Cartesian components [D]:          [-13.897469,  -9.757908,   3.939656]
      RMS size of the density [Ang]:         2.709694
        Cartesian components [Ang]:        [  1.103270,   2.360364,   0.744260]
    
    Exciton analysis of the difference density matrix
      <r_h> [Ang]:                  [ -1.031268,   0.406989,   0.247986]
      <r_e> [Ang]:                  [  1.384602,   2.565410,  -0.839583]
      |<r_e - r_h>| [Ang]:            3.417311
      Hole size [Ang]:                0.122770
        Cartesian components [Ang]: [  0.070877,   0.070885,   0.070881]
      Electron size [Ang]:            0.564788
        Cartesian components [Ang]: [  0.310815,   0.354431,   0.311059]

  Singlet 8 :
  -------------------------
    NOs
      Occupation of frontier NOs:
         0.0000   1.0000   1.0000   2.0000
      Number of electrons: 30.000000
      Number of unpaired electrons: n_u =  2.00000, n_u,nl =  2.00000
      NO participation ratio (PR_NO):  2.000000
    
    NDOs
      Leading detachment eigenvalues:
        -1.0000  -0.0000
      Leading attachment eigenvalues:
         1.0000   0.0000
      Number of detached / attached electrons: p_D =  1.0000, p_A =  1.0000
      Number of involved orbitals: PR_D =  1.000000, PR_A =  1.000000
    
    Mulliken Population Analysis (State/Difference DM)
    Atom      Charge (e)              h+              e-           Del q
    --------------------------------------------------------------------
     1 O        0.398029        0.993817       -0.002153        0.991664
     2 O       -0.600325        0.000000       -0.000119       -0.000119
     3 H        0.315289       -0.000003       -0.000021       -0.000024
     4 H        0.280033        0.000000       -0.000007       -0.000007
     5 H        0.305192        0.002713       -0.000375        0.002338
     6 H        0.303975        0.003473       -0.000472        0.003000
     7 O       -1.510718       -0.000000       -0.910470       -0.910470
     8 H        0.249085       -0.000000       -0.053594       -0.053594
     9 H        0.259441        0.000000       -0.032789       -0.032789
    --------------------------------------------------------------------
    Sum:       -0.000000        1.000000       -1.000000       -0.000000
    
    Multipole moment analysis of the density matrix
      Molecular charge:                      -0.000000
      Number of electrons:                   30.000000
        Center of electronic charge [Ang]: [  0.074386,   0.071012,  -0.039189]
      Total nuclear charge:                  30.000000
        Center of nuclear charge [Ang]:    [ -0.020580,   0.004290,  -0.011963]
      Dipole moment [D]:                     17.178043
        Cartesian components [D]:          [-13.684207,  -9.614428,   3.923063]
      RMS size of the density [Ang]:         2.708546
        Cartesian components [Ang]:        [  1.102281,   2.359455,   0.744424]
    
    Exciton analysis of the difference density matrix
      <r_h> [Ang]:                  [ -1.031268,   0.406989,   0.247986]
      <r_e> [Ang]:                  [  1.340202,   2.535538,  -0.836129]
      |<r_e - r_h>| [Ang]:            3.365991
      Hole size [Ang]:                0.122770
        Cartesian components [Ang]: [  0.070877,   0.070885,   0.070881]
      Electron size [Ang]:            0.632633
        Cartesian components [Ang]: [  0.381411,   0.380946,   0.331105]

  Singlet 9 :
  -------------------------
    NOs
      Occupation of frontier NOs:
         0.0000   1.0000   1.0000   2.0000
      Number of electrons: 30.000000
      Number of unpaired electrons: n_u =  2.00000, n_u,nl =  2.00000
      NO participation ratio (PR_NO):  2.000000
    
    NDOs
      Leading detachment eigenvalues:
        -1.0000  -0.0000
      Leading attachment eigenvalues:
         1.0000   0.0000
      Number of detached / attached electrons: p_D =  1.0000, p_A =  1.0000
      Number of involved orbitals: PR_D =  1.000000, PR_A =  1.000000
    
    Mulliken Population Analysis (State/Difference DM)
    Atom      Charge (e)              h+              e-           Del q
    --------------------------------------------------------------------
     1 O       -0.486493        0.993817       -0.886674        0.107143
     2 O       -0.600353        0.000000       -0.000147       -0.000147
     3 H        0.315259       -0.000003       -0.000050       -0.000053
     4 H        0.279978        0.000000       -0.000063       -0.000063
     5 H        0.241087        0.002713       -0.064479       -0.061766
     6 H        0.257408        0.003473       -0.047039       -0.043566
     7 O       -0.601396       -0.000000       -0.001147       -0.001148
     8 H        0.302408       -0.000000       -0.000271       -0.000271
     9 H        0.292100        0.000000       -0.000130       -0.000130
    --------------------------------------------------------------------
    Sum:       -0.000000        1.000000       -1.000000       -0.000000
    
    Multipole moment analysis of the density matrix
      Molecular charge:                      -0.000000
      Number of electrons:                   30.000000
        Center of electronic charge [Ang]: [ -0.005705,   0.003559,  -0.004314]
      Total nuclear charge:                  30.000000
        Center of nuclear charge [Ang]:    [ -0.020580,   0.004290,  -0.011963]
      Dipole moment [D]:                     2.412484
        Cartesian components [D]:          [ -2.143378,   0.105355,  -1.102228]
      RMS size of the density [Ang]:         2.664323
        Cartesian components [Ang]:        [  1.094426,   2.316435,   0.731423]
    
    Exciton analysis of the difference density matrix
      <r_h> [Ang]:                  [ -1.031268,   0.406989,   0.247986]
      <r_e> [Ang]:                  [ -1.062533,   0.511934,   0.210108]
      |<r_e - r_h>| [Ang]:            0.115869
      Hole size [Ang]:                0.122770
        Cartesian components [Ang]: [  0.070877,   0.070885,   0.070881]
      Electron size [Ang]:            0.632254
        Cartesian components [Ang]: [  0.360531,   0.355409,   0.378744]

  Singlet 10 :
  -------------------------
    NOs
      Occupation of frontier NOs:
         0.0000   1.0000   1.0000   2.0000
      Number of electrons: 30.000000
      Number of unpaired electrons: n_u =  2.00000, n_u,nl =  2.00000
      NO participation ratio (PR_NO):  2.000000
    
    NDOs
      Leading detachment eigenvalues:
        -1.0000  -0.0000
      Leading attachment eigenvalues:
         1.0000   0.0000
      Number of detached / attached electrons: p_D =  1.0000, p_A =  1.0000
      Number of involved orbitals: PR_D =  1.000000, PR_A =  1.000000
    
    Mulliken Population Analysis (State/Difference DM)
    Atom      Charge (e)              h+              e-           Del q
    --------------------------------------------------------------------
     1 O        0.196815        0.993817       -0.203366        0.790450
     2 O       -0.609884        0.000000       -0.009677       -0.009677
     3 H        0.311655       -0.000003       -0.003654       -0.003657
     4 H        0.276716        0.000000       -0.003325       -0.003325
     5 H        0.274560        0.002713       -0.031006       -0.028293
     6 H        0.244294        0.003473       -0.060153       -0.056680
     7 O       -1.162029       -0.000000       -0.561781       -0.561781
     8 H        0.268270       -0.000000       -0.034409       -0.034409
     9 H        0.199602        0.000000       -0.092628       -0.092628
    --------------------------------------------------------------------
    Sum:        0.000000        1.000000       -1.000000        0.000000
    
    Multipole moment analysis of the density matrix
      Molecular charge:                      0.000000
      Number of electrons:                   30.000000
        Center of electronic charge [Ang]: [  0.052089,   0.049617,  -0.028100]
      Total nuclear charge:                  30.000000
        Center of nuclear charge [Ang]:    [ -0.020580,   0.004290,  -0.011963]
      Dipole moment [D]:                     12.558501
        Cartesian components [D]:          [-10.471341,  -6.531503,   2.325174]
      RMS size of the density [Ang]:         2.699032
        Cartesian components [Ang]:        [  1.102525,   2.349175,   0.742014]
    
    Exciton analysis of the difference density matrix
      <r_h> [Ang]:                  [ -1.031268,   0.406989,   0.247986]
      <r_e> [Ang]:                  [  0.671302,   1.893690,  -0.503457]
      |<r_e - r_h>| [Ang]:            2.381951
      Hole size [Ang]:                0.122770
        Cartesian components [Ang]: [  0.070877,   0.070885,   0.070881]
      Electron size [Ang]:            1.818342
        Cartesian components [Ang]: [  1.192698,   1.207658,   0.652227]

  Singlet 11 :
  -------------------------
    NOs
      Occupation of frontier NOs:
         0.0000   1.0000   1.0000   2.0000
      Number of electrons: 30.000000
      Number of unpaired electrons: n_u =  2.00000, n_u,nl =  2.00000
      NO participation ratio (PR_NO):  2.000000
    
    NDOs
      Leading detachment eigenvalues:
        -1.0000  -0.0000
      Leading attachment eigenvalues:
         1.0000   0.0000
      Number of detached / attached electrons: p_D =  1.0000, p_A =  1.0000
      Number of involved orbitals: PR_D =  1.000000, PR_A =  1.000000
    
    Mulliken Population Analysis (State/Difference DM)
    Atom      Charge (e)              h+              e-           Del q
    --------------------------------------------------------------------
     1 O       -0.042120        0.993817       -0.442301        0.551516
     2 O       -0.631852        0.000000       -0.031646       -0.031646
     3 H        0.303221       -0.000003       -0.012089       -0.012092
     4 H        0.268951        0.000000       -0.011090       -0.011089
     5 H        0.232100        0.002713       -0.073467       -0.070753
     6 H        0.186173        0.003473       -0.118274       -0.114801
     7 O       -0.849004       -0.000000       -0.248755       -0.248756
     8 H        0.283261       -0.000000       -0.019417       -0.019418
     9 H        0.249269        0.000000       -0.042961       -0.042961
    --------------------------------------------------------------------
    Sum:       -0.000000        1.000000       -1.000000       -0.000000
    
    Multipole moment analysis of the density matrix
      Molecular charge:                      -0.000000
      Number of electrons:                   30.000000
        Center of electronic charge [Ang]: [  0.021869,   0.018589,  -0.013943]
      Total nuclear charge:                  30.000000
        Center of nuclear charge [Ang]:    [ -0.020580,   0.004290,  -0.011963]
      Dipole moment [D]:                     6.460765
        Cartesian components [D]:          [ -6.116746,  -2.060466,   0.285269]
      RMS size of the density [Ang]:         2.682895
        Cartesian components [Ang]:        [  1.097373,   2.334592,   0.737141]
    
    Exciton analysis of the difference density matrix
      <r_h> [Ang]:                  [ -1.031268,   0.406989,   0.247986]
      <r_e> [Ang]:                  [ -0.235300,   0.962846,  -0.078761]
      |<r_e - r_h>| [Ang]:            1.024356
      Hole size [Ang]:                0.122770
        Cartesian components [Ang]: [  0.070877,   0.070885,   0.070881]
      Electron size [Ang]:            1.963175
        Cartesian components [Ang]: [  1.187744,   1.415886,   0.662258]

  Singlet 12 :
  -------------------------
    NOs
      Occupation of frontier NOs:
         0.0000   1.0000   1.0000   2.0000
      Number of electrons: 30.000000
      Number of unpaired electrons: n_u =  2.00000, n_u,nl =  2.00000
      NO participation ratio (PR_NO):  2.000000
    
    NDOs
      Leading detachment eigenvalues:
        -1.0000  -0.0000
      Leading attachment eigenvalues:
         1.0000   0.0000
      Number of detached / attached electrons: p_D =  1.0000, p_A =  1.0000
      Number of involved orbitals: PR_D =  1.000000, PR_A =  1.000000
    
    Mulliken Population Analysis (State/Difference DM)
    Atom      Charge (e)              h+              e-           Del q
    --------------------------------------------------------------------
     1 O        0.343994        0.993817       -0.056187        0.937630
     2 O       -1.162140        0.000000       -0.561933       -0.561933
     3 H        0.149849       -0.000003       -0.165461       -0.165464
     4 H        0.082012        0.000000       -0.198029       -0.198029
     5 H        0.297355        0.002713       -0.008211       -0.005498
     6 H        0.295092        0.003473       -0.009355       -0.005882
     7 O       -0.600908       -0.000000       -0.000659       -0.000660
     8 H        0.302582       -0.000000       -0.000097       -0.000097
     9 H        0.292163        0.000000       -0.000067       -0.000067
    --------------------------------------------------------------------
    Sum:        0.000000        1.000000       -1.000000        0.000000
    
    Multipole moment analysis of the density matrix
      Molecular charge:                      0.000000
      Number of electrons:                   30.000000
        Center of electronic charge [Ang]: [  0.016452,  -0.104543,   0.004430]
      Total nuclear charge:                  30.000000
        Center of nuclear charge [Ang]:    [ -0.020580,   0.004290,  -0.011963]
      Dipole moment [D]:                     16.732922
        Cartesian components [D]:          [ -5.336137,  15.682351,  -2.362242]
      RMS size of the density [Ang]:         2.708172
        Cartesian components [Ang]:        [  1.079570,   2.372205,   0.735779]
    
    Exciton analysis of the difference density matrix
      <r_h> [Ang]:                  [ -1.031268,   0.406989,   0.247986]
      <r_e> [Ang]:                  [ -0.397819,  -2.731108,   0.472436]
      |<r_e - r_h>| [Ang]:            3.209251
      Hole size [Ang]:                0.122770
        Cartesian components [Ang]: [  0.070877,   0.070885,   0.070881]
      Electron size [Ang]:            1.181758
        Cartesian components [Ang]: [  0.372686,   1.049518,   0.395182]

  Singlet 13 :
  -------------------------
    NOs
      Occupation of frontier NOs:
         0.0000   1.0000   1.0000   2.0000
      Number of electrons: 30.000000
      Number of unpaired electrons: n_u =  2.00000, n_u,nl =  2.00000
      NO participation ratio (PR_NO):  2.000000
    
    NDOs
      Leading detachment eigenvalues:
        -1.0000  -0.0000
      Leading attachment eigenvalues:
         1.0000   0.0000
      Number of detached / attached electrons: p_D =  1.0000, p_A =  1.0000
      Number of involved orbitals: PR_D =  1.000000, PR_A =  1.000000
    
    Mulliken Population Analysis (State/Difference DM)
    Atom      Charge (e)              h+              e-           Del q
    --------------------------------------------------------------------
     1 O        0.398625        0.993817       -0.001556        0.992260
     2 O       -0.600251        0.000000       -0.000045       -0.000045
     3 H        0.315304       -0.000003       -0.000005       -0.000008
     4 H        0.280027        0.000000       -0.000013       -0.000013
     5 H        0.305285        0.002713       -0.000281        0.002432
     6 H        0.304334        0.003473       -0.000114        0.003359
     7 O       -1.221970       -0.000000       -0.621722       -0.621722
     8 H        0.237716       -0.000000       -0.064963       -0.064963
     9 H       -0.019069        0.000000       -0.311300       -0.311300
    --------------------------------------------------------------------
    Sum:        0.000000        1.000000       -1.000000        0.000000
    
    Multipole moment analysis of the density matrix
      Molecular charge:                      0.000000
      Number of electrons:                   30.000000
        Center of electronic charge [Ang]: [  0.076978,   0.065224,  -0.032492]
      Total nuclear charge:                  30.000000
        Center of nuclear charge [Ang]:    [ -0.020580,   0.004290,  -0.011963]
      Dipole moment [D]:                     16.836445
        Cartesian components [D]:          [-14.057769,  -8.780341,   2.958144]
      RMS size of the density [Ang]:         2.703528
        Cartesian components [Ang]:        [  1.105929,   2.353465,   0.739722]
    
    Exciton analysis of the difference density matrix
      <r_h> [Ang]:                  [ -1.031268,   0.406989,   0.247986]
      <r_e> [Ang]:                  [  1.417976,   2.361886,  -0.635238]
      |<r_e - r_h>| [Ang]:            3.255841
      Hole size [Ang]:                0.122770
        Cartesian components [Ang]: [  0.070877,   0.070885,   0.070881]
      Electron size [Ang]:            0.700565
        Cartesian components [Ang]: [  0.429434,   0.353453,   0.425968]

  Singlet 14 :
  -------------------------
    NOs
      Occupation of frontier NOs:
         0.0000   1.0000   1.0000   2.0000
      Number of electrons: 30.000000
      Number of unpaired electrons: n_u =  2.00000, n_u,nl =  2.00000
      NO participation ratio (PR_NO):  2.000000
    
    NDOs
      Leading detachment eigenvalues:
        -1.0000  -0.0000
      Leading attachment eigenvalues:
         1.0000   0.0000
      Number of detached / attached electrons: p_D =  1.0000, p_A =  1.0000
      Number of involved orbitals: PR_D =  1.000000, PR_A =  1.000000
    
    Mulliken Population Analysis (State/Difference DM)
    Atom      Charge (e)              h+              e-           Del q
    --------------------------------------------------------------------
     1 O        0.397828        0.993817       -0.002353        0.991463
     2 O       -0.600294        0.000000       -0.000088       -0.000087
     3 H        0.315287       -0.000003       -0.000023       -0.000025
     4 H        0.280025        0.000000       -0.000016       -0.000016
     5 H        0.305083        0.002713       -0.000484        0.002230
     6 H        0.304133        0.003473       -0.000314        0.003159
     7 O       -1.308519       -0.000000       -0.708271       -0.708271
     8 H        0.217484       -0.000000       -0.085195       -0.085195
     9 H        0.088973        0.000000       -0.203257       -0.203257
    --------------------------------------------------------------------
    Sum:       -0.000000        1.000000       -1.000000       -0.000000
    
    Multipole moment analysis of the density matrix
      Molecular charge:                      -0.000000
      Number of electrons:                   30.000000
        Center of electronic charge [Ang]: [  0.075187,   0.066226,  -0.034438]
      Total nuclear charge:                  30.000000
        Center of nuclear charge [Ang]:    [ -0.020580,   0.004290,  -0.011963]
      Dipole moment [D]:                     16.750290
        Cartesian components [D]:          [-13.799718,  -8.924781,   3.238562]
      RMS size of the density [Ang]:         2.703990
        Cartesian components [Ang]:        [  1.103815,   2.354678,   0.740706]
    
    Exciton analysis of the difference density matrix
      <r_h> [Ang]:                  [ -1.031268,   0.406989,   0.247986]
      <r_e> [Ang]:                  [  1.364251,   2.391957,  -0.693620]
      |<r_e - r_h>| [Ang]:            3.250420
      Hole size [Ang]:                0.122770
        Cartesian components [Ang]: [  0.070877,   0.070885,   0.070881]
      Electron size [Ang]:            0.703107
        Cartesian components [Ang]: [  0.430770,   0.396618,   0.389218]

  Singlet 15 :
  -------------------------
    NOs
      Occupation of frontier NOs:
         0.0000   1.0000   1.0000   2.0000
      Number of electrons: 30.000000
      Number of unpaired electrons: n_u =  2.00000, n_u,nl =  2.00000
      NO participation ratio (PR_NO):  2.000000
    
    NDOs
      Leading detachment eigenvalues:
        -1.0000  -0.0000
      Leading attachment eigenvalues:
         1.0000   0.0000
      Number of detached / attached electrons: p_D =  1.0000, p_A =  1.0000
      Number of involved orbitals: PR_D =  1.000000, PR_A =  1.000000
    
    Mulliken Population Analysis (State/Difference DM)
    Atom      Charge (e)              h+              e-           Del q
    --------------------------------------------------------------------
     1 O       -0.059351        0.993817       -0.459532        0.534285
     2 O       -0.616211        0.000000       -0.016005       -0.016005
     3 H        0.305790       -0.000003       -0.009520       -0.009523
     4 H        0.277334        0.000000       -0.002706       -0.002706
     5 H        0.209798        0.002713       -0.095769       -0.093055
     6 H        0.278765        0.003473       -0.025682       -0.022210
     7 O       -0.907809       -0.000000       -0.307561       -0.307561
     8 H        0.245006       -0.000000       -0.057673       -0.057673
     9 H        0.266679        0.000000       -0.025552       -0.025551
    --------------------------------------------------------------------
    Sum:       -0.000000        1.000000       -1.000000       -0.000000
    
    Multipole moment analysis of the density matrix
      Molecular charge:                      -0.000000
      Number of electrons:                   30.000000
        Center of electronic charge [Ang]: [  0.024421,   0.024603,  -0.019082]
      Total nuclear charge:                  30.000000
        Center of nuclear charge [Ang]:    [ -0.020580,   0.004290,  -0.011963]
      Dipole moment [D]:                     7.188057
        Cartesian components [D]:          [ -6.484500,  -2.926999,   1.025718]
      RMS size of the density [Ang]:         2.683396
        Cartesian components [Ang]:        [  1.099299,   2.334338,   0.736899]
    
    Exciton analysis of the difference density matrix
      <r_h> [Ang]:                  [ -1.031268,   0.406989,   0.247986]
      <r_e> [Ang]:                  [ -0.158736,   1.143253,  -0.232918]
      |<r_e - r_h>| [Ang]:            1.238816
      Hole size [Ang]:                0.122770
        Cartesian components [Ang]: [  0.070877,   0.070885,   0.070881]
      Electron size [Ang]:            1.885037
        Cartesian components [Ang]: [  1.253544,   1.263752,   0.620420]

  Singlet 16 :
  -------------------------
    NOs
      Occupation of frontier NOs:
         0.0000   1.0000   1.0000   2.0000
      Number of electrons: 30.000000
      Number of unpaired electrons: n_u =  2.00000, n_u,nl =  2.00000
      NO participation ratio (PR_NO):  2.000000
    
    NDOs
      Leading detachment eigenvalues:
        -1.0000  -0.0000
      Leading attachment eigenvalues:
         1.0000   0.0000
      Number of detached / attached electrons: p_D =  1.0000, p_A =  1.0000
      Number of involved orbitals: PR_D =  1.000000, PR_A =  1.000000
    
    Mulliken Population Analysis (State/Difference DM)
    Atom      Charge (e)              h+              e-           Del q
    --------------------------------------------------------------------
     1 O        0.127552        0.993817       -0.272629        0.721188
     2 O       -0.638740        0.000000       -0.038534       -0.038533
     3 H        0.292230       -0.000003       -0.023080       -0.023083
     4 H        0.274241        0.000000       -0.005800       -0.005800
     5 H        0.253644        0.002713       -0.051923       -0.049209
     6 H        0.287749        0.003473       -0.016698       -0.013226
     7 O       -1.067174       -0.000000       -0.466926       -0.466926
     8 H        0.212838       -0.000000       -0.089841       -0.089841
     9 H        0.257661        0.000000       -0.034570       -0.034570
    --------------------------------------------------------------------
    Sum:       -0.000000        1.000000       -1.000000       -0.000000
    
    Multipole moment analysis of the density matrix
      Molecular charge:                      -0.000000
      Number of electrons:                   30.000000
        Center of electronic charge [Ang]: [  0.041666,   0.034344,  -0.024896]
      Total nuclear charge:                  30.000000
        Center of nuclear charge [Ang]:    [ -0.020580,   0.004290,  -0.011963]
      Dipole moment [D]:                     10.133008
        Cartesian components [D]:          [ -8.969384,  -4.330735,   1.863525]
      RMS size of the density [Ang]:         2.693628
        Cartesian components [Ang]:        [  1.099361,   2.345165,   0.739758]
    
    Exciton analysis of the difference density matrix
      <r_h> [Ang]:                  [ -1.031268,   0.406989,   0.247986]
      <r_e> [Ang]:                  [  0.358603,   1.435503,  -0.407345]
      |<r_e - r_h>| [Ang]:            1.849065
      Hole size [Ang]:                0.122770
        Cartesian components [Ang]: [  0.070877,   0.070885,   0.070881]
      Electron size [Ang]:            2.072271
        Cartesian components [Ang]: [  1.227282,   1.542891,   0.638414]

  Singlet 17 :
  -------------------------
    NOs
      Occupation of frontier NOs:
         0.0000   1.0000   1.0000   2.0000
      Number of electrons: 30.000000
      Number of unpaired electrons: n_u =  2.00000, n_u,nl =  2.00000
      NO participation ratio (PR_NO):  2.000000
    
    NDOs
      Leading detachment eigenvalues:
        -1.0000  -0.0000
      Leading attachment eigenvalues:
         1.0000   0.0000
      Number of detached / attached electrons: p_D =  1.0000, p_A =  1.0000
      Number of involved orbitals: PR_D =  1.000000, PR_A =  1.000000
    
    Mulliken Population Analysis (State/Difference DM)
    Atom      Charge (e)              h+              e-           Del q
    --------------------------------------------------------------------
     1 O        0.400103        0.993817       -0.000078        0.993738
     2 O       -1.488519        0.000000       -0.888313       -0.888313
     3 H        0.279007       -0.000003       -0.036303       -0.036305
     4 H        0.204769        0.000000       -0.075272       -0.075272
     5 H        0.305561        0.002713       -0.000006        0.002708
     6 H        0.304439        0.003473       -0.000008        0.003464
     7 O       -0.600263       -0.000000       -0.000015       -0.000015
     8 H        0.302676       -0.000000       -0.000003       -0.000003
     9 H        0.292229        0.000000       -0.000002       -0.000002
    --------------------------------------------------------------------
    Sum:        0.000000        1.000000       -1.000000        0.000000
    
    Multipole moment analysis of the density matrix
      Molecular charge:                      0.000000
      Number of electrons:                   30.000000
        Center of electronic charge [Ang]: [  0.018686,  -0.113054,   0.006557]
      Total nuclear charge:                  30.000000
        Center of nuclear charge [Ang]:    [ -0.020580,   0.004290,  -0.011963]
      Dipole moment [D]:                     18.028931
        Cartesian components [D]:          [ -5.658112,  16.908755,  -2.668731]
      RMS size of the density [Ang]:         2.710634
        Cartesian components [Ang]:        [  1.077884,   2.375567,   0.736469]
    
    Exciton analysis of the difference density matrix
      <r_h> [Ang]:                  [ -1.031268,   0.406989,   0.247986]
      <r_e> [Ang]:                  [ -0.330785,  -2.986439,   0.536246]
      |<r_e - r_h>| [Ang]:            3.476941
      Hole size [Ang]:                0.122770
        Cartesian components [Ang]: [  0.070877,   0.070885,   0.070881]
      Electron size [Ang]:            0.616427
        Cartesian components [Ang]: [  0.284542,   0.419551,   0.350706]

  Singlet 18 :
  -------------------------
    NOs
      Occupation of frontier NOs:
         0.0000   1.0000   1.0000   2.0000
      Number of electrons: 30.000000
      Number of unpaired electrons: n_u =  2.00000, n_u,nl =  2.00000
      NO participation ratio (PR_NO):  2.000000
    
    NDOs
      Leading detachment eigenvalues:
        -1.0000  -0.0000
      Leading attachment eigenvalues:
         1.0000   0.0000
      Number of detached / attached electrons: p_D =  1.0000, p_A =  1.0000
      Number of involved orbitals: PR_D =  1.000000, PR_A =  1.000000
    
    Mulliken Population Analysis (State/Difference DM)
    Atom      Charge (e)              h+              e-           Del q
    --------------------------------------------------------------------
     1 O        0.321270        0.993817       -0.078911        0.914906
     2 O       -1.103838        0.000000       -0.503632       -0.503632
     3 H       -0.008924       -0.000003       -0.324234       -0.324237
     4 H        0.216390        0.000000       -0.063651       -0.063651
     5 H        0.291278        0.002713       -0.014289       -0.011575
     6 H        0.299353        0.003473       -0.005095       -0.001622
     7 O       -0.608273       -0.000000       -0.008025       -0.008025
     8 H        0.301159       -0.000000       -0.001520       -0.001520
     9 H        0.291586        0.000000       -0.000644       -0.000644
    --------------------------------------------------------------------
    Sum:        0.000000        1.000000       -1.000000        0.000000
    
    Multipole moment analysis of the density matrix
      Molecular charge:                      0.000000
      Number of electrons:                   30.000000
        Center of electronic charge [Ang]: [  0.015913,  -0.094148,   0.004828]
      Total nuclear charge:                  30.000000
        Center of nuclear charge [Ang]:    [ -0.020580,   0.004290,  -0.011963]
      Dipole moment [D]:                     15.320124
        Cartesian components [D]:          [ -5.258457,  14.184511,  -2.419602]
      RMS size of the density [Ang]:         2.701484
        Cartesian components [Ang]:        [  1.080513,   2.364028,   0.736126]
    
    Exciton analysis of the difference density matrix
      <r_h> [Ang]:                  [ -1.031268,   0.406989,   0.247986]
      <r_e> [Ang]:                  [ -0.413991,  -2.419267,   0.484378]
      |<r_e - r_h>| [Ang]:            2.902521
      Hole size [Ang]:                0.122770
        Cartesian components [Ang]: [  0.070877,   0.070885,   0.070881]
      Electron size [Ang]:            1.352863
        Cartesian components [Ang]: [  0.431681,   1.218087,   0.400190]

  Singlet 19 :
  -------------------------
    NOs
      Occupation of frontier NOs:
         0.0000   1.0000   1.0000   2.0000
      Number of electrons: 30.000000
      Number of unpaired electrons: n_u =  2.00000, n_u,nl =  2.00000
      NO participation ratio (PR_NO):  2.000000
    
    NDOs
      Leading detachment eigenvalues:
        -1.0000  -0.0000
      Leading attachment eigenvalues:
         1.0000   0.0000
      Number of detached / attached electrons: p_D =  1.0000, p_A =  1.0000
      Number of involved orbitals: PR_D =  1.000000, PR_A =  1.000000
    
    Mulliken Population Analysis (State/Difference DM)
    Atom      Charge (e)              h+              e-           Del q
    --------------------------------------------------------------------
     1 O       -0.495682        0.993817       -0.895863        0.097954
     2 O       -0.603094        0.000000       -0.002888       -0.002888
     3 H        0.313529       -0.000003       -0.001781       -0.001784
     4 H        0.279745        0.000000       -0.000296       -0.000295
     5 H        0.242365        0.002713       -0.063202       -0.060489
     6 H        0.273761        0.003473       -0.030686       -0.027214
     7 O       -0.604355       -0.000000       -0.004107       -0.004107
     8 H        0.301889       -0.000000       -0.000790       -0.000790
     9 H        0.291843        0.000000       -0.000387       -0.000387
    --------------------------------------------------------------------
    Sum:       -0.000000        1.000000       -1.000000       -0.000000
    
    Multipole moment analysis of the density matrix
      Molecular charge:                      -0.000000
      Number of electrons:                   30.000000
        Center of electronic charge [Ang]: [ -0.006545,   0.002450,  -0.005880]
[...]
 133  O 2   f 1     -0.00002   0.00022
 134  O 2   f 2     -0.00000   0.00009
 135  O 2   f 3      0.00004   0.00028
 136  O 2   f 4     -0.00004   0.00004
 137  O 2   f 5     -0.00003   0.00002
 138  O 2   f 6     -0.00002   0.00009
 139  O 2   f 7     -0.00012  -0.00011
 140  O 2   f 1     -0.00017  -0.00088
 141  O 2   f 2      0.00006  -0.00082
 142  O 2   f 3     -0.00082  -0.00200
 143  O 2   f 4      0.00052   0.00003
 144  O 2   f 5      0.00014  -0.00022
 145  O 2   f 6      0.00055   0.00014
 146  O 2   f 7      0.00118   0.00078
 147  O 2   f 1      0.00407  -0.00527
 148  O 2   f 2      0.00100  -0.00761
 149  O 2   f 3     -0.00039  -0.01091
 150  O 2   f 4     -0.00219  -0.00765
 151  O 2   f 5      0.00052  -0.00142
 152  O 2   f 6     -0.00394  -0.00606
 153  O 2   f 7      0.00180  -0.00162
 154  O 2   g 1      0.00003  -0.00002
 155  O 2   g 2      0.00007  -0.00011
 156  O 2   g 3      0.00004  -0.00007
 157  O 2   g 4      0.00011  -0.00004
 158  O 2   g 5     -0.00004  -0.00019
 159  O 2   g 6     -0.00001  -0.00006
 160  O 2   g 7     -0.00005  -0.00019
 161  O 2   g 8     -0.00006  -0.00013
 162  O 2   g 9      0.00004  -0.00004
 163  O 2   g 1      0.00036  -0.00015
 164  O 2   g 2     -0.00076   0.00024
 165  O 2   g 3      0.00001   0.00163
 166  O 2   g 4     -0.00077   0.00039
 167  O 2   g 5      0.00053   0.00172
 168  O 2   g 6     -0.00011   0.00088
 169  O 2   g 7      0.00069   0.00167
 170  O 2   g 8      0.00003   0.00118
 171  O 2   g 9     -0.00056   0.00050
 172  O 2   h 1     -0.00009   0.00013
 173  O 2   h 2     -0.00003   0.00024
 174  O 2   h 3      0.00001   0.00009
 175  O 2   h 4      0.00003  -0.00006
 176  O 2   h 5      0.00008   0.00017
 177  O 2   h 6     -0.00005   0.00007
 178  O 2   h 7     -0.00002  -0.00012
 179  O 2   h 8     -0.00004   0.00010
 180  O 2   h 9     -0.00011  -0.00010
 181  O 2   h10      0.00011   0.00010
 182  O 2   h11     -0.00003   0.00007
 183  H 1   s       -0.00069   0.00017
 184  H 1   s        0.00592  -0.00009
 185  H 1   s       -0.01325  -0.00255
 186  H 1   s       -0.12113  -0.28994
 187  H 1   s       -0.11277   0.88915
 188  H 1   px       0.00005  -0.00032
 189  H 1   py      -0.00032   0.00146
 190  H 1   pz       0.00013  -0.00064
 191  H 1   px       0.00014   0.00101
 192  H 1   py      -0.00153  -0.00549
 193  H 1   pz       0.00059   0.00226
 194  H 1   px       0.00723  -0.01690
 195  H 1   py       0.00754   0.03506
 196  H 1   pz      -0.00663  -0.03850
 197  H 1   px       0.00597  -0.02688
 198  H 1   py       0.04788   0.07502
 199  H 1   pz      -0.01806  -0.03045
 200  H 1   d 1     -0.00008  -0.00015
 201  H 1   d 2     -0.00036  -0.00054
 202  H 1   d 3     -0.00009   0.00023
 203  H 1   d 4      0.00003   0.00020
 204  H 1   d 5     -0.00032   0.00050
 205  H 1   d 1     -0.00040   0.00215
 206  H 1   d 2      0.00250   0.00633
 207  H 1   d 3      0.00023  -0.00223
 208  H 1   d 4     -0.00008  -0.00222
 209  H 1   d 5      0.00214  -0.00260
 210  H 1   d 1     -0.00510   0.01142
 211  H 1   d 2      0.00902   0.02012
 212  H 1   d 3      0.00297   0.00125
 213  H 1   d 4      0.00042  -0.00809
 214  H 1   d 5      0.01450   0.01834
 215  H 1   f 1      0.00004   0.00027
 216  H 1   f 2     -0.00000   0.00008
 217  H 1   f 3      0.00010   0.00022
 218  H 1   f 4      0.00004   0.00031
 219  H 1   f 5      0.00001   0.00003
 220  H 1   f 6      0.00003   0.00032
 221  H 1   f 7     -0.00009   0.00004
 222  H 1   f 1     -0.00347  -0.00079
 223  H 1   f 2      0.00023   0.00301
 224  H 1   f 3     -0.00025   0.00257
 225  H 1   f 4      0.00149   0.00214
 226  H 1   f 5     -0.00065  -0.00058
 227  H 1   f 6      0.00277   0.00293
 228  H 1   f 7     -0.00033   0.00174
 229  H 1   g 1      0.00003  -0.00002
 230  H 1   g 2     -0.00022  -0.00014
 231  H 1   g 3      0.00007   0.00006
 232  H 1   g 4     -0.00014  -0.00018
 233  H 1   g 5      0.00007   0.00027
 234  H 1   g 6     -0.00001   0.00009
 235  H 1   g 7      0.00003   0.00030
 236  H 1   g 8      0.00002   0.00021
 237  H 1   g 9     -0.00027   0.00008
 238  H 2   s        0.00002  -0.00259
 239  H 2   s        0.00507   0.00579
 240  H 2   s       -0.03582  -0.09626
 241  H 2   s       -0.23354  -0.12390
 242  H 2   s        0.25412  -0.77169
 243  H 2   px      -0.00013   0.00040
 244  H 2   py      -0.00047   0.00078
 245  H 2   pz      -0.00064   0.00085
 246  H 2   px       0.00046  -0.00082
 247  H 2   py       0.00241   0.00069
 248  H 2   pz       0.00289   0.00012
 249  H 2   px      -0.00666   0.00527
 250  H 2   py      -0.02147  -0.01813
 251  H 2   pz      -0.02552   0.00087
 252  H 2   px      -0.02363  -0.02404
 253  H 2   py      -0.05616  -0.02329
 254  H 2   pz      -0.05588  -0.03542
 255  H 2   d 1     -0.00001  -0.00000
 256  H 2   d 2      0.00013   0.00060
 257  H 2   d 3      0.00011  -0.00011
 258  H 2   d 4      0.00008   0.00005
 259  H 2   d 5     -0.00017  -0.00065
 260  H 2   d 1     -0.00015   0.00005
 261  H 2   d 2     -0.00137  -0.00377
 262  H 2   d 3     -0.00117   0.00160
 263  H 2   d 4     -0.00076   0.00015
 264  H 2   d 5      0.00098   0.00464
 265  H 2   d 1     -0.00638  -0.00596
 266  H 2   d 2     -0.01815  -0.01149
 267  H 2   d 3     -0.00538   0.00239
 268  H 2   d 4     -0.00620   0.00107
 269  H 2   d 5      0.00603   0.00411
 270  H 2   f 1     -0.00001   0.00030
 271  H 2   f 2      0.00001   0.00007
 272  H 2   f 3     -0.00006   0.00016
 273  H 2   f 4     -0.00006   0.00001
 274  H 2   f 5     -0.00001  -0.00011
 275  H 2   f 6     -0.00004   0.00009
 276  H 2   f 7     -0.00005  -0.00011
 277  H 2   f 1      0.00053   0.00066
 278  H 2   f 2     -0.00160  -0.00092
 279  H 2   f 3     -0.00241  -0.00163
 280  H 2   f 4      0.00033   0.00206
 281  H 2   f 5     -0.00116   0.00056
 282  H 2   f 6      0.00209   0.00322
 283  H 2   f 7      0.00094   0.00165
 284  H 2   g 1      0.00004   0.00011
 285  H 2   g 2      0.00007   0.00022
 286  H 2   g 3     -0.00014  -0.00004
 287  H 2   g 4     -0.00011   0.00009
 288  H 2   g 5      0.00009   0.00011
 289  H 2   g 6     -0.00007  -0.00007
 290  H 2   g 7      0.00015   0.00015
 291  H 2   g 8      0.00010   0.00009
 292  H 2   g 9     -0.00001  -0.00006
 293  H 3   s       -0.00262   0.00766
 294  H 3   s       -0.03597  -0.00355
 295  H 3   s        0.14131   0.35018
 296  H 3   s        0.65445   0.51837
 297  H 3   s        0.68372   1.06116
 298  H 3   px      -0.00020  -0.00079
 299  H 3   py       0.00002   0.00068
 300  H 3   pz       0.00022  -0.00124
 301  H 3   px      -0.00462  -0.00308
 302  H 3   py       0.00189  -0.00116
 303  H 3   pz      -0.00598  -0.00031
 304  H 3   px       0.06876   0.06473
 305  H 3   py       0.01867  -0.01201
 306  H 3   pz       0.06173   0.06972
 307  H 3   px       0.24077   0.11199
 308  H 3   py       0.03079  -0.14181
 309  H 3   pz       0.17953   0.17129
 310  H 3   d 1      0.00013   0.00032
 311  H 3   d 2     -0.00024   0.00019
 312  H 3   d 3     -0.00030  -0.00056
 313  H 3   d 4     -0.00153  -0.00074
 314  H 3   d 5     -0.00058  -0.00061
 315  H 3   d 1      0.00124  -0.00213
 316  H 3   d 2      0.00274  -0.00138
 317  H 3   d 3      0.00344   0.00606
 318  H 3   d 4      0.01200   0.01191
 319  H 3   d 5      0.00562   0.00659
 320  H 3   d 1      0.00797  -0.01752
 321  H 3   d 2      0.01282  -0.02232
 322  H 3   d 3      0.01223   0.01205
 323  H 3   d 4      0.06673   0.03570
 324  H 3   d 5      0.04912   0.01445
 325  H 3   f 1     -0.00003   0.00013
 326  H 3   f 2      0.00003  -0.00011
 327  H 3   f 3     -0.00005   0.00020
 328  H 3   f 4      0.00007  -0.00022
 329  H 3   f 5      0.00022   0.00090
 330  H 3   f 6     -0.00016   0.00070
 331  H 3   f 7     -0.00010   0.00014
 332  H 3   f 1      0.00054  -0.00298
 333  H 3   f 2      0.00151  -0.00493
 334  H 3   f 3      0.00263  -0.00408
 335  H 3   f 4     -0.00418  -0.00031
 336  H 3   f 5      0.01069   0.00502
 337  H 3   f 6      0.01520   0.00451
 338  H 3   f 7      0.00720   0.00195
 339  H 3   g 1      0.00001  -0.00005
 340  H 3   g 2      0.00005  -0.00033
 341  H 3   g 3      0.00014  -0.00046
 342  H 3   g 4      0.00020  -0.00005
 343  H 3   g 5     -0.00057  -0.00032
 344  H 3   g 6      0.00016   0.00015
 345  H 3   g 7      0.00105   0.00045
 346  H 3   g 8      0.00085   0.00015
 347  H 3   g 9      0.00035   0.00006
 348  H 4   s       -0.00897  -0.00155
 349  H 4   s       -0.00680   0.01416
 350  H 4   s       -0.36136  -0.26421
 351  H 4   s       -0.08519  -0.53961
 352  H 4   s       -2.01918  -0.90384
 353  H 4   px      -0.00019  -0.00021
 354  H 4   py      -0.00324  -0.00147
 355  H 4   pz      -0.00183  -0.00028
 356  H 4   px      -0.00114  -0.00100
 357  H 4   py       0.00596  -0.00167
 358  H 4   pz       0.00277  -0.00175
 359  H 4   px       0.01421   0.04671
 360  H 4   py       0.03261   0.04165
 361  H 4   pz       0.03479   0.06558
 362  H 4   px      -0.06282   0.09582
 363  H 4   py       0.09201   0.12108
 364  H 4   pz       0.07723   0.16088
 365  H 4   d 1      0.00038   0.00046
 366  H 4   d 2      0.00058   0.00062
 367  H 4   d 3      0.00009  -0.00025
 368  H 4   d 4      0.00024   0.00119
 369  H 4   d 5     -0.00027  -0.00022
 370  H 4   d 1     -0.00478  -0.00726
 371  H 4   d 2     -0.01179  -0.00929
 372  H 4   d 3     -0.00020   0.00075
 373  H 4   d 4     -0.00365  -0.00861
 374  H 4   d 5      0.00621   0.00306
 375  H 4   d 1      0.01884  -0.02941
 376  H 4   d 2     -0.03014  -0.04756
 377  H 4   d 3     -0.01521  -0.02041
 378  H 4   d 4      0.00326  -0.01243
 379  H 4   d 5      0.00221  -0.00769
 380  H 4   f 1     -0.00031  -0.00024
 381  H 4   f 2      0.00105   0.00049
 382  H 4   f 3     -0.00012  -0.00009
 383  H 4   f 4     -0.00039  -0.00048
 384  H 4   f 5     -0.00005   0.00045
 385  H 4   f 6     -0.00068  -0.00032
 386  H 4   f 7     -0.00075  -0.00053
 387  H 4   f 1     -0.00095   0.00514
 388  H 4   f 2     -0.00157   0.00749
 389  H 4   f 3      0.00694   0.00793
 390  H 4   f 4     -0.00325  -0.00376
 391  H 4   f 5      0.00157  -0.00093
 392  H 4   f 6     -0.00540  -0.00516
 393  H 4   f 7      0.00288  -0.00438
 394  H 4   g 1     -0.00015   0.00024
 395  H 4   g 2      0.00036   0.00003
 396  H 4   g 3     -0.00022  -0.00029
 397  H 4   g 4      0.00012   0.00013
 398  H 4   g 5      0.00041   0.00052
 399  H 4   g 6     -0.00000   0.00024
 400  H 4   g 7      0.00046   0.00063
 401  H 4   g 8      0.00022   0.00070
 402  H 4   g 9     -0.00014   0.00054
 403  O 3   s        0.00150   0.00069
 404  O 3   s       -0.06184   0.01205
 405  O 3   s       -0.00519   0.00238
 406  O 3   s        0.00275   0.01354
 407  O 3   s       -0.33065  -0.00674
 408  O 3   s       -1.65182   0.15613
 409  O 3   px       0.01082  -0.04438
 410  O 3   py       0.01647   0.00915
 411  O 3   pz       0.01318  -0.02002
 412  O 3   px       0.01193  -0.07417
 413  O 3   py       0.01968   0.01453
 414  O 3   pz       0.02925  -0.03114
 415  O 3   px       0.03730  -0.10418
 416  O 3   py       0.06096   0.03339
 417  O 3   pz       0.01258  -0.05883
 418  O 3   px       0.24879  -0.04109
 419  O 3   py       0.43290   0.07793
 420  O 3   pz      -0.19890   0.01888
 421  O 3   px       0.29151  -0.48395
 422  O 3   py       0.12304  -0.03286
 423  O 3   pz      -0.00070  -0.28614
 424  O 3   d 1     -0.00036  -0.00042
 425  O 3   d 2      0.00061  -0.00012
 426  O 3   d 3      0.00028   0.00035
 427  O 3   d 4     -0.00029  -0.00009
 428  O 3   d 5     -0.00002   0.00003
 429  O 3   d 1      0.00205   0.00196
 430  O 3   d 2     -0.00414   0.00003
 431  O 3   d 3     -0.00184  -0.00122
 432  O 3   d 4      0.00422   0.00010
 433  O 3   d 5      0.00175  -0.00145
 434  O 3   d 1     -0.01233  -0.00816
 435  O 3   d 2      0.03013   0.00738
 436  O 3   d 3      0.01113   0.00436
 437  O 3   d 4     -0.01938  -0.00030
 438  O 3   d 5     -0.00836   0.01235
 439  O 3   d 1     -0.08329   0.01565
 440  O 3   d 2      0.10339   0.02310
 441  O 3   d 3      0.04563  -0.03104
 442  O 3   d 4     -0.01855   0.00957
 443  O 3   d 5     -0.04386   0.05543
 444  O 3   f 1     -0.00024   0.00024
 445  O 3   f 2     -0.00061   0.00006
 446  O 3   f 3      0.00003  -0.00001
 447  O 3   f 4      0.00006   0.00014
 448  O 3   f 5      0.00032  -0.00028
 449  O 3   f 6      0.00007  -0.00067
 450  O 3   f 7     -0.00029  -0.00018
 451  O 3   f 1      0.00194  -0.00150
 452  O 3   f 2      0.00399   0.00045
 453  O 3   f 3      0.00039   0.00098
 454  O 3   f 4     -0.00001  -0.00004
 455  O 3   f 5     -0.00236   0.00127
 456  O 3   f 6      0.00062   0.00392
 457  O 3   f 7      0.00211   0.00089
 458  O 3   f 1      0.03640  -0.01872
 459  O 3   f 2      0.01521   0.00127
 460  O 3   f 3      0.00956   0.01231
 461  O 3   f 4      0.01022  -0.00434
 462  O 3   f 5     -0.03485   0.01661
 463  O 3   f 6      0.01557   0.02513
 464  O 3   f 7      0.01014   0.00033
 465  O 3   g 1      0.00011  -0.00006
 466  O 3   g 2     -0.00013   0.00035
 467  O 3   g 3     -0.00011   0.00036
 468  O 3   g 4      0.00010  -0.00005
 469  O 3   g 5      0.00003  -0.00004
 470  O 3   g 6      0.00010  -0.00025
 471  O 3   g 7     -0.00011  -0.00002
 472  O 3   g 8      0.00010   0.00013
 473  O 3   g 9     -0.00021   0.00018
 474  O 3   g 1     -0.00528   0.00016
 475  O 3   g 2      0.00007  -0.00604
 476  O 3   g 3      0.00609  -0.00332
 477  O 3   g 4      0.00040   0.00080
 478  O 3   g 5      0.00007   0.00219
 479  O 3   g 6     -0.00028   0.00308
 480  O 3   g 7      0.00420   0.00265
 481  O 3   g 8      0.00246   0.00007
 482  O 3   g 9      0.00287  -0.00224
 483  O 3   h 1      0.00030  -0.00009
 484  O 3   h 2     -0.00017  -0.00012
 485  O 3   h 3     -0.00042  -0.00039
 486  O 3   h 4      0.00019  -0.00036
 487  O 3   h 5     -0.00006  -0.00033
 488  O 3   h 6      0.00033   0.00023
 489  O 3   h 7      0.00054  -0.00026
 490  O 3   h 8      0.00013   0.00018
 491  O 3   h 9      0.00041   0.00019
 492  O 3   h10      0.00011  -0.00039
 493  O 3   h11     -0.00052   0.00005
 494  H 5   s        0.00798  -0.00640
 495  H 5   s        0.00058  -0.00869
 496  H 5   s        0.50861  -0.12026
 497  H 5   s        0.44546  -0.08868
 498  H 5   s        1.36039  -1.73971
 499  H 5   px      -0.00243   0.00229
 500  H 5   py      -0.00152   0.00111
 501  H 5   pz      -0.00050   0.00015
 502  H 5   px       0.00339  -0.00289
 503  H 5   py       0.00493  -0.00164
 504  H 5   pz      -0.00172   0.00076
 505  H 5   px       0.11209   0.02887
 506  H 5   py       0.02835   0.01791
 507  H 5   pz       0.03413  -0.02521
 508  H 5   px       0.13681  -0.00533
 509  H 5   py       0.05295  -0.03872
 510  H 5   pz       0.07876  -0.01930
 511  H 5   d 1     -0.00018   0.00010
 512  H 5   d 2     -0.00005   0.00034
 513  H 5   d 3      0.00051   0.00003
 514  H 5   d 4     -0.00044   0.00047
 515  H 5   d 5     -0.00054   0.00030
 516  H 5   d 1      0.00911   0.00204
 517  H 5   d 2      0.00215  -0.00299
 518  H 5   d 3     -0.00878  -0.00157
 519  H 5   d 4      0.00744  -0.00549
 520  H 5   d 5      0.01131  -0.00207
 521  H 5   d 1     -0.00097   0.00799
 522  H 5   d 2      0.00800  -0.01246
 523  H 5   d 3      0.00435  -0.00868
 524  H 5   d 4      0.02595  -0.02184
 525  H 5   d 5      0.01118   0.00812
 526  H 5   f 1      0.00166   0.00017
 527  H 5   f 2      0.00018  -0.00006
 528  H 5   f 3     -0.00074  -0.00017
 529  H 5   f 4     -0.00063   0.00012
 530  H 5   f 5     -0.00106  -0.00004
 531  H 5   f 6      0.00065  -0.00039
 532  H 5   f 7      0.00086  -0.00018
 533  H 5   f 1     -0.00267   0.00163
 534  H 5   f 2      0.00302  -0.00485
 535  H 5   f 3      0.00277  -0.00123
 536  H 5   f 4     -0.00186   0.00458
 537  H 5   f 5      0.00247  -0.00311
 538  H 5   f 6      0.00189  -0.00315
 539  H 5   f 7      0.00063   0.00025
 540  H 5   g 1      0.00020   0.00012
 541  H 5   g 2      0.00029  -0.00047
 542  H 5   g 3      0.00013  -0.00024
 543  H 5   g 4     -0.00007   0.00015
 544  H 5   g 5      0.00002   0.00025
 545  H 5   g 6     -0.00030   0.00043
 546  H 5   g 7      0.00000  -0.00014
 547  H 5   g 8      0.00017  -0.00026
 548  H 5   g 9      0.00015   0.00001
 549  H 6   s        0.00361   0.00261
 550  H 6   s        0.00789  -0.00378
 551  H 6   s        0.44228   0.12837
 552  H 6   s        0.26157  -0.12329
 553  H 6   s        0.16970   1.76008
 554  H 6   px       0.00049   0.00096
 555  H 6   py      -0.00127  -0.00172
 556  H 6   pz       0.00133   0.00194
 557  H 6   px       0.00030  -0.00218
 558  H 6   py       0.00759   0.00346
 559  H 6   pz      -0.00586  -0.00291
 560  H 6   px      -0.03857  -0.03973
 561  H 6   py       0.05676  -0.03755
 562  H 6   pz      -0.08352   0.00080
 563  H 6   px      -0.06111  -0.04861
 564  H 6   py       0.06207  -0.03287
 565  H 6   pz      -0.08189   0.01576
 566  H 6   d 1     -0.00044   0.00058
 567  H 6   d 2     -0.00017   0.00017
 568  H 6   d 3     -0.00023  -0.00058
 569  H 6   d 4      0.00005  -0.00073
 570  H 6   d 5     -0.00004  -0.00026
 571  H 6   d 1     -0.00227  -0.00673
 572  H 6   d 2     -0.01213   0.00054
 573  H 6   d 3      0.00606   0.00448
 574  H 6   d 4      0.00527   0.01087
 575  H 6   d 5     -0.00423   0.00659
 576  H 6   d 1      0.00173  -0.01561
 577  H 6   d 2      0.00249   0.02108
 578  H 6   d 3     -0.00458   0.00196
 579  H 6   d 4      0.00426   0.02476
 580  H 6   d 5      0.01111   0.02671
 581  H 6   f 1     -0.00037   0.00045
 582  H 6   f 2      0.00122   0.00043
 583  H 6   f 3      0.00146   0.00024
 584  H 6   f 4      0.00015   0.00012
 585  H 6   f 5     -0.00067  -0.00065
 586  H 6   f 6      0.00060  -0.00056
 587  H 6   f 7      0.00046  -0.00018
 588  H 6   f 1      0.00066   0.00635
 589  H 6   f 2     -0.00439   0.00632
 590  H 6   f 3     -0.00167  -0.00116
 591  H 6   f 4     -0.00065  -0.00234
 592  H 6   f 5      0.00209  -0.00499
 593  H 6   f 6     -0.00078  -0.00816
 594  H 6   f 7     -0.00253   0.00154
 595  H 6   g 1     -0.00011  -0.00024
 596  H 6   g 2      0.00009  -0.00091
 597  H 6   g 3      0.00018  -0.00059
 598  H 6   g 4     -0.00018  -0.00012
 599  H 6   g 5      0.00008  -0.00005
 600  H 6   g 6     -0.00005   0.00033
 601  H 6   g 7     -0.00001   0.00056
 602  H 6   g 8      0.00008  -0.00005
 603  H 6   g 9      0.00013  -0.00044

 -----------------------------------------------------------------
                    Cartesian Multipole Moments
 -----------------------------------------------------------------
    Charge (ESU x 10^10)
                 0.0000
    Dipole Moment (Debye)
         X      -2.2936      Y       0.6094      Z      -1.2842
       Tot       2.6983
    Quadrupole Moments (Debye-Ang)
        XX     -19.7478     XY      -3.8249     YY     -26.1167
        XZ       5.2853     YZ       9.1779     ZZ     -22.3718
    Octopole Moments (Debye-Ang^2)
       XXX      -2.7632    XXY      -1.9092    XYY     -22.3156
       YYY     -34.3352    XXZ       0.7023    XYZ       5.6410
       YYZ      -9.1232    XZZ      -3.2543    YZZ       3.2592
       ZZZ       0.0849
    Hexadecapole Moments (Debye-Ang^3)
      XXXX    -136.4085   XXXY     -86.3983   XXYY    -153.0471
      XYYY    -105.4594   YYYY    -674.8381   XXXZ      44.7248
      XXYZ      37.9486   XYYZ      35.6182   YYYZ     163.6383
      XXZZ     -40.8039   XYZZ     -37.0802   YYZZ    -143.1330
      XZZZ      35.0227   YZZZ      83.1675   ZZZZ     -67.9960
 -----------------------------------------------------------------
 Total job time:  562.23s(wall), 7797.72s(cpu) 
 Thu Dec 19 17:17:48 2024

        *************************************************************
        *                                                           *
        *  Thank you very much for using Q-Chem.  Have a nice day.  *
        *                                                           *
        *************************************************************


