                  Welcome to Q-Chem
     A Quantum Leap Into The Future Of Chemistry


 Q-Chem 6.2 (devel), Q-Chem, Inc., Pleasanton, CA (2024)

 E. Epifanovsky,  A. T. B. Gilbert,  Xintian Feng,  Joonho Lee,  Yuezhi Mao,  
 N. Mardirossian,  P. Pokhilko,  A. White,  M. Wormit,  M. P. Coons,  
 A. L. Dempwolff,  Zhengting Gan,  D. Hait,  P. R. Horn,  L. D. Jacobson,  
 I. Kaliman,  J. Kussmann,  A. W. Lange,  Ka Un Lao,  D. S. Levine,  Jie Liu,  
 S. C. McKenzie,  A. F. Morrison,  K. D. Nanda,  F. Plasser,  D. R. Rehn,  
 M. L. Vidal,  Zhi-Qiang You,  Ying Zhu,  Huseyin Aksu,  B. Alam,  
 B. Albrecht,  A. Aldossary,  E. Alguire,  J. H. Andersen,  
 J. E. Arias-Martinez,  V. Athavale,  D. Barton,  K. Begam,  A. Behn,  
 N. Bellonzi,  Y. A. Bernard,  E. J. Berquist,  H. Burton,  A. Carreras,  
 K. Carter-Fenk,  Mathew Chow,  Romit Chakraborty,  Chandrima Chakravarty,  
 Junhan Chen,  A. D. Chien,  K. D. Closser,  V. Cofer-Shabica,  L. Cunha,  
 S. Dasgupta,  Jia Deng,  Joseph Dickinson,  M. de Wergifosse,  
 M. Diedenhofen,  Hainam Do,  Wenjie Dou,  S. Ehlert,  Po-Tung Fang,  
 S. Fatehi,  Qingguo Feng,  Jonathan Fetherolf,  T. Friedhoff,  
 Thomas Froitzheim,  Sarai Folkestad,  B. Ganoe,  J. Gayvert,  Qinghui Ge,  
 G. Gidofalvi,  M. Gimferrer,  M. Goldey,  Montgomery Gray,  J. Gomes,  
 C. Gonzalez-Espinoza,  S. Gulania,  A. Gunina,  J. A. Gyamfi,  
 M. W. D. Hanson-Heine,  P. H. P. Harbach,  A. W. Hauser,  M. F. Herbst,  
 M. Hernandez Vera,  M. Hodecker,  Z. C. Holden,  S. Houck,  Xunkun Huang,  
 Kerwin Hui,  B. C. Huynh,  K. Ikeda,  M. Ivanov,  Nayanthara K. Jayadev,  
 Hyunjun Ji,  Zuxin Jin,  Hanjie Jiang,  Subrata Jana,  B. Kaduk,  
 S. Kaehler,  R. Kang,  K. Khistyaev,  Jaehoon Kim,  Yongbin Kim,  
 P. Klunzinger,  Z. Koczor-Benda,  Joong Hoon Koh,  D. Kosenkov,  
 Saikiran Kotaru,  L. Koulias,  T. Kowalczyk,  C. M. Krauter,  K. Kue,  
 A. Kunitsa,  T. Kus,  A. Landau,  K. V. Lawler,  D. Lefrancois,  S. Lehtola,  
 Rain Li,  Shaozhi Li,  Tao E. Li,  Yi-Pei Li,  Jiashu Liang,  M. Liebenthal,  
 Hung-Hsuan Lin,  You-Sheng Lin,  Fenglai Liu,  Kuan-Yu Liu,  Xiao Liu,  
 M. Loipersberger,  A. Luenser,  C. Malbon,  Aniket Mandal,  Manisha,  
 A. Manjanath,  P. Manohar,  E. Mansoor,  S. F. Manzer,  Shan-Ping Mao,  
 A. V. Marenich,  T. Markovich,  S. Mason,  F. Matz,  S. A. Maurer,  
 Samuel May,  Alexandra McIsaac,  P. F. McLaughlin,  M. F. S. J. Menger,  
 J.-M. Mewes,  S. A. Mewes,  P. Morgante,  Mohammad Mostafanejad,  
 Madhubani Mukherjee,  J. W. Mullinax,  Quyen Nguyen,  Avik Kumar Ojha,  
 K. J. Oosterbaan,  Eno Paenurk,  Xiaoliang Pan,  G. Paran,  V. Parravicini,  
 Alexander C. Paul,  Suranjan K. Paul,  F. Pavosevic,  Zheng Pei,  S. Prager,  
 E. I. Proynov,  E. Ramos,  B. Rana,  A. E. Rask,  A. Rettig,  R. M. Richard,  
 F. Rob,  E. Rossomme,  T. Scheele,  M. Scheurer,  M. Schneider,  
 P. E. Schneider,  Tim K. Schramm,  N. Sergueev,  S. M. Sharada,  
 Hengyuan Shen,  W. Skomorowski,  D. W. Small,  C. J. Stein,  
 Alistair J. Sterling,  Yingli Su,  Yu-Chuan Su,  E. J. Sundstrom,  
 J. Talbot,  Zhen Tao,  J. Thirman,  Hung-Yi Tsai,  T. Tsuchimochi,  
 N. M. Tubman,  C. Utku,  S. P. Veccham,  O. Vydrov,  Rahel Weiss,  
 J. Wenzel,  Jonathan Wong,  J. Witte,  H. Wu,  Yanze Wu,  A. Yamada,  
 Chou-Hsun Yang,  Kun Yao,  S. Yeganeh,  S. R. Yost,  Qi Yu,  A. Zech,  
 F. Zeller,  Chongxiao Zhao,  Igor Ying Zhang,  Xing Zhang,  Yu Zhang,  
 D. Zuev,  A. Aspuru-Guzik,  A. T. Bell,  N. A. Besley,  K. B. Bravaya,  
 B. R. Brooks,  D. Casanova,  Jeng-Da Chai,  Hsing-Ta Chen,  S. Coriani,  
 C. J. Cramer,  A. E. DePrince, III,  R. A. DiStasio Jr.,  A. Dreuw,  
 B. D. Dunietz,  T. R. Furlani,  W. A. Goddard III,  S. Grimme,  
 S. Hammes-Schiffer,  T. Head-Gordon,  W. J. Hehre,  Chao-Ping Hsu,  
 T.-C. Jagau,  Yousung Jung,  A. Klamt,  Jing Kong,  D. S. Lambrecht,  
 Xiangyuan Li,  WanZhen Liang,  N. J. Mayhall,  C. W. McCurdy,  J. B. Neaton,  
 T. Neudecker,  C. Ochsenfeld,  J. A. Parkhill,  R. Peverati,  
 V. A. Rassolov,  Haisheng Ren,  Yihan Shao,  L. V. Slipchenko,  
 R. P. Steele,  J. E. Subotnik,  A. J. W. Thom,  A. Tkatchenko,  
 D. G. Truhlar,  T. Van Voorhis,  Fan Wang,  T. A. Wesolowski,  K. B. Whaley,  
 H. L. Woodcock III,  P. M. Zimmerman,  S. Faraji,  P. M. W. Gill,  
 M. Head-Gordon,  J. M. Herbert,  A. I. Krylov

 Contributors to earlier versions of Q-Chem not listed above: 
 R. D. Adamson,  B. Austin,  R. Baer,  J. Baker,  G. J. O. Beran,  
 K. Brandhorst,  S. T. Brown,  E. F. C. Byrd,  Arup K. Chakraborty,  
 G. K. L. Chan,  Chun-Min Chang,  Yunqing Chen,  C.-L. Cheng,  
 Siu Hung Chien,  D. M. Chipman,  D. L. Crittenden,  H. Dachsel,  
 R. J. Doerksen,  A. D. Dutoi,  R. G. Edgar,  J. Fosso-Tande,  
 L. Fusti-Molnar,  D. Ghosh,  A. Ghysels,  A. Golubeva-Zadorozhnaya,  
 J. Gonthier,  M. S. Gordon,  S. R. Gwaltney,  G. Hawkins,  J. E. Herr,  
 A. Heyden,  S. Hirata,  E. G. Hohenstein,  G. Kedziora,  F. J. Keil,  
 C. Kelley,  Jihan Kim,  R. A. King,  R. Z. Khaliullin,  P. P. Korambath,  
 W. Kurlancheek,  A. Laurent,  A. M. Lee,  M. S. Lee,  S. V. Levchenko,  
 Ching Yeh Lin,  D. Liotard,  E. Livshits,  R. C. Lochan,  I. Lotan,  
 L. A. Martinez-Martinez,  P. E. Maslen,  N. Nair,  D. P. O'Neill,  
 D. Neuhauser,  E. Neuscamman,  C. M. Oana,  R. Olivares-Amaya,  R. Olson,  
 T. M. Perrine,  B. Peters,  P. A. Pieniazek,  A. Prociuk,  Y. M. Rhee,  
 J. Ritchie,  M. A. Rohrdanz,  E. Rosta,  N. J. Russ,  H. F. Schaefer III,  
 M. W. Schmidt,  N. E. Schultz,  S. Sharma,  N. Shenvi,  C. D. Sherrill,  
 A. C. Simmonett,  A. Sodt,  T. Stein,  D. Stuck,  K. S. Thanthiriwatte,  
 V. Vanovschi,  L. Vogt,  Tao Wang,  A. Warshel,  M. A. Watson,  
 C. F. Williams,  Q. Wu,  X. Xu,  Jun Yang,  W. Zhang,  Yan Zhao

   Please cite Q-Chem as follows:
  "Software for the frontiers of quantum chemistry:
   An overview of developments in the Q-Chem 5 package"
   J. Chem. Phys. 155, 084801 (2021)
   https://doi.org/10.1063/5.0055522 (open access)

 Q-Chem 6.2.2 for Intel X86 EM64T Linux

 Parts of Q-Chem use Armadillo 9.900.5 (Nocturnal Misbehaviour).
 http://arma.sourceforge.net/

 Q-Chem begins on Mon Dec 30 14:37:42 2024  

 Host: compute-0-14.local
0

     Scratch files written to /scratch/keith/A0D0_1//
 Processing $rem in /home/keith/software/qchem/qchem_622/config/preferences:
 Processing $rem in /home/keith/.qchemrc:

 Checking the input file for inconsistencies... 	...done.

--------------------------------------------------------------
User input:
--------------------------------------------------------------
$molecule
read
$end

$rem
method                    b3lyp 
basis                     cc-pv5z 
mem_total                 63000
mem_static                8000
thresh                    12
scf_convergence           8
xc_grid                   000075000302
max_scf_cycles            2000
symmetry                  false
sym_ignore                true
scf_guess                 read
skip_scfman               true
cis_n_roots               150
cis_triplets              false
rpa                       false 
trnss                     true
trtype                    3
n_sol                     1
nto_pairs                 2
gui                       2
print_orbitals            true
state_analysis            true
$end

$solute 
1 
$end
--------------------------------------------------------------
 ----------------------------------------------------------------
             Standard Nuclear Orientation (Angstroms)
    I     Atom           X                Y                Z
 ----------------------------------------------------------------
    1      O      -1.0312200000     0.4068400000     0.2480400000
    2      O      -0.2835200000    -3.0021600000     0.6456400000
    3      H      -0.5051200000    -2.1381600000     0.3506400000
    4      H      -0.4955200000    -3.6541600000    -0.0441600000
    5      H      -1.6510200000     0.5918400000    -0.4868600000
    6      H      -0.7853200000     1.2658400000     0.5996400000
    7      O       1.3931800000     2.5789400000    -0.8480600000
    8      H       0.5008800000     2.1761400000    -0.9688600000
    9      H       1.6911800000     2.0182400000    -0.1742600000
 ----------------------------------------------------------------
 Nuclear Repulsion Energy =          67.60410860 hartrees
 There are       15 alpha and       15 beta electrons
 Requested basis set is cc-pV5Z
 There are 153 shells and 603 basis functions

 Total QAlloc Memory Limit  63000 MB
 Mega-Array Size      7821 MB
 MEM_STATIC part      8000 MB


                       Distance Matrix (Angstroms)
             O (  1)   O (  2)   H (  3)   H (  4)   H (  5)   H (  6)
   O (  2)  3.512609
   H (  3)  2.600833  0.939483
   H (  4)  4.106589  0.972560  1.566594
   H (  5)  0.979007  4.008672  3.076913  4.422633
   H (  6)  0.960193  4.297644  3.424577  4.970399  1.544084
   O (  7)  3.434701  6.015907  5.224123  6.562391  3.653243  2.926761
   H (  8)  2.637916  5.480573  4.622370  5.986675  2.715328  2.223319
   H (  9)  3.191615  5.456747  4.730213  6.080683  3.647278  2.701496
             O (  7)   H (  8)
   H (  8)  0.986428
   H (  9)  0.925848  1.439839

 A cutoff of  1.0D-12 yielded   8303 shell pairs
 There are    115729 function pairs (    195541 Cartesian)
 Smallest overlap matrix eigenvalue = 4.32E-05

 Scale SEOQF with 1.000000e-01/1.000000e-01/1.000000e+00

 Standard Electronic Orientation quadrupole field applied
 Nucleus-field energy     =     0.0000000001 hartrees
 Guess MOs from SCF MO coefficient file
 Reading MOs from coefficient file
 Reading MOs from coefficient file
 Skipping gen_scfman as requested.
 MAX_CIS_SUBSPACE fits in available memory
 Direct TDDFT/TDA calculation will be performed
 Exchange:     0.2000 Hartree-Fock + 0.0800 Slater + 0.7200 B88
 Correlation:  0.1900 VWN1RPA + 0.8100 LYP
 Using Euler-Maclaurin-Lebedev (75,302) quadrature formula
 Singlet excitation energies requested
 CIS energy converged when residual is below 10e- 6
   
 ***Using a Restricted Set of Single Excitations***
   
 RCIS calculation
   
 Excitations from specified occupied orbitals
 -------------------------------------------------------------
              Orbitals in Truncated CIS space
 -------------------------------------------------------------
     1  16  17  18  19  20  21  22  23  24  25  26  27  28  29
    30  31  32  33  34  35  36  37  38  39  40  41  42  43  44
    45  46  47  48  49  50  51  52  53  54  55  56  57  58  59
    60  61  62  63  64  65  66  67  68  69  70  71  72  73  74
    75  76  77  78  79  80  81  82  83  84  85  86  87  88  89
    90  91  92  93  94  95  96  97  98  99 100 101 102 103 104
   105 106 107 108 109 110 111 112 113 114 115 116 117 118 119
   120 121 122 123 124 125 126 127 128 129 130 131 132 133 134
   135 136 137 138 139 140 141 142 143 144 145 146 147 148 149
   150 151 152 153 154 155 156 157 158 159 160 161 162 163 164
   165 166 167 168 169 170 171 172 173 174 175 176 177 178 179
   180 181 182 183 184 185 186 187 188 189 190 191 192 193 194
   195 196 197 198 199 200 201 202 203 204 205 206 207 208 209
   210 211 212 213 214 215 216 217 218 219 220 221 222 223 224
   225 226 227 228 229 230 231 232 233 234 235 236 237 238 239
   240 241 242 243 244 245 246 247 248 249 250 251 252 253 254
   255 256 257 258 259 260 261 262 263 264 265 266 267 268 269
   270 271 272 273 274 275 276 277 278 279 280 281 282 283 284
   285 286 287 288 289 290 291 292 293 294 295 296 297 298 299
   300 301 302 303 304 305 306 307 308 309 310 311 312 313 314
   315 316 317 318 319 320 321 322 323 324 325 326 327 328 329
   330 331 332 333 334 335 336 337 338 339 340 341 342 343 344
   345 346 347 348 349 350 351 352 353 354 355 356 357 358 359
   360 361 362 363 364 365 366 367 368 369 370 371 372 373 374
   375 376 377 378 379 380 381 382 383 384 385 386 387 388 389
   390 391 392 393 394 395 396 397 398 399 400 401 402 403 404
   405 406 407 408 409 410 411 412 413 414 415 416 417 418 419
   420 421 422 423 424 425 426 427 428 429 430 431 432 433 434
   435 436 437 438 439 440 441 442 443 444 445 446 447 448 449
   450 451 452 453 454 455 456 457 458 459 460 461 462 463 464
   465 466 467 468 469 470 471 472 473 474 475 476 477 478 479
   480 481 482 483 484 485 486 487 488 489 490 491 492 493 494
   495 496 497 498 499 500 501 502 503 504 505 506 507 508 509
   510 511 512 513 514 515 516 517 518 519 520 521 522 523 524
   525 526 527 528 529 530 531 532 533 534 535 536 537 538 539
   540 541 542 543 544 545 546 547 548 549 550 551 552 553 554
   555 556 557 558 559 560 561 562 563 564 565 566 567 568 569
   570 571 572 573 574 575 576 577 578 579 580 581 582 583 584
   585 586 587 588 589 590 591 592 593 594 595 596 597 598 599
   600 601 602 603
   
    Number of Occupied Orbitals =    1  out of    15
    Number of Virtual Orbitals  =  588  out of   588
 -------------------------------------------------------------
 Number of Roots adjusted to:         150
 ---------------------------------------------------
 Iter    Rts Conv    Rts Left    Ttl Dev     Max Dev
 ---------------------------------------------------
   1         0         150      0.041035    0.000855
   2        76          74      0.024928    0.000468
   3       146           4      0.024897    0.000468
   4       150           0      0.024897    0.000468    Roots Converged
 ---------------------------------------------------

 ---------------------------------------------------
         TDDFT/TDA Excitation Energies              
 ---------------------------------------------------

 Excited state   1: excitation energy (eV) =     518.9105
 Total energy for state   1:                  -210.34891916 au
    Multiplicity: Singlet
    Trans. Mom.:  0.0050 X  -0.0223 Y   0.0117 Z
    Strength   :     0.0084088726
    D(    1) --> V(    1) amplitude =  0.9872

 Excited state   2: excitation energy (eV) =     520.6498
 Total energy for state   2:                  -210.28499864 au
    Multiplicity: Singlet
    Trans. Mom.: -0.0248 X  -0.0154 Y  -0.0240 Z
    Strength   :     0.0181964418
    D(    1) --> V(    2) amplitude = -0.5942
    D(    1) --> V(    3) amplitude =  0.7183
    D(    1) --> V(    4) amplitude =  0.2342
    D(    1) --> V(    5) amplitude =  0.2318

 Excited state   3: excitation energy (eV) =     521.0917
 Total energy for state   3:                  -210.26876054 au
    Multiplicity: Singlet
    Trans. Mom.: -0.0097 X   0.0106 Y  -0.0121 Z
    Strength   :     0.0044906233
    D(    1) --> V(    2) amplitude =  0.7736
    D(    1) --> V(    3) amplitude =  0.5930

 Excited state   4: excitation energy (eV) =     521.6195
 Total energy for state   4:                  -210.24936360 au
    Multiplicity: Singlet
    Trans. Mom.:  0.0094 X  -0.0161 Y  -0.0189 Z
    Strength   :     0.0089857515
    D(    1) --> V(    3) amplitude = -0.2637
    D(    1) --> V(    4) amplitude =  0.9373

 Excited state   5: excitation energy (eV) =     522.2658
 Total energy for state   5:                  -210.22561173 au
    Multiplicity: Singlet
    Trans. Mom.: -0.0086 X  -0.0144 Y  -0.0028 Z
    Strength   :     0.0037051549
    D(    1) --> V(    5) amplitude =  0.9526

 Excited state   6: excitation energy (eV) =     523.1470
 Total energy for state   6:                  -210.19322973 au
    Multiplicity: Singlet
    Trans. Mom.: -0.0143 X   0.0133 Y  -0.0062 Z
    Strength   :     0.0053893704
    D(    1) --> V(    6) amplitude =  0.9747

 Excited state   7: excitation energy (eV) =     524.7684
 Total energy for state   7:                  -210.13364368 au
    Multiplicity: Singlet
    Trans. Mom.:  0.0096 X   0.0152 Y   0.0010 Z
    Strength   :     0.0041534115
    D(    1) --> V(    7) amplitude =  0.9649

 Excited state   8: excitation energy (eV) =     525.1085
 Total energy for state   8:                  -210.12114600 au
    Multiplicity: Singlet
    Trans. Mom.: -0.0171 X  -0.0108 Y   0.0214 Z
    Strength   :     0.0111479431
    D(    1) --> V(    8) amplitude =  0.9031
    D(    1) --> V(    9) amplitude =  0.2933

 Excited state   9: excitation energy (eV) =     525.8873
 Total energy for state   9:                  -210.09252402 au
    Multiplicity: Singlet
    Trans. Mom.:  0.0046 X   0.0033 Y   0.0018 Z
    Strength   :     0.0004553075
    D(    1) --> V(    8) amplitude = -0.3797
    D(    1) --> V(    9) amplitude =  0.7853
    D(    1) --> V(   10) amplitude = -0.4427

 Excited state  10: excitation energy (eV) =     526.1077
 Total energy for state  10:                  -210.08442453 au
    Multiplicity: Singlet
    Trans. Mom.: -0.0139 X   0.0022 Y   0.0000 Z
    Strength   :     0.0025511775
    D(    1) --> V(    9) amplitude =  0.5002
    D(    1) --> V(   10) amplitude =  0.8262

 Excited state  11: excitation energy (eV) =     526.7901
 Total energy for state  11:                  -210.05934813 au
    Multiplicity: Singlet
    Trans. Mom.: -0.0035 X   0.0032 Y  -0.0158 Z
    Strength   :     0.0035307019
    D(    1) --> V(   11) amplitude =  0.6504
    D(    1) --> V(   12) amplitude =  0.6258
    D(    1) --> V(   14) amplitude =  0.2861
    D(    1) --> V(   17) amplitude = -0.2297

 Excited state  12: excitation energy (eV) =     526.8586
 Total energy for state  12:                  -210.05682893 au
    Multiplicity: Singlet
    Trans. Mom.:  0.0116 X  -0.0089 Y   0.0164 Z
    Strength   :     0.0062384740
    D(    1) --> V(   11) amplitude =  0.6261
    D(    1) --> V(   12) amplitude = -0.6044
    D(    1) --> V(   13) amplitude = -0.2622
    D(    1) --> V(   17) amplitude =  0.2388

 Excited state  13: excitation energy (eV) =     527.3103
 Total energy for state  13:                  -210.04023057 au
    Multiplicity: Singlet
    Trans. Mom.: -0.0024 X  -0.0271 Y  -0.0131 Z
    Strength   :     0.0117710657
    D(    1) --> V(   13) amplitude = -0.2523
    D(    1) --> V(   14) amplitude =  0.3890
    D(    1) --> V(   15) amplitude = -0.2514
    D(    1) --> V(   16) amplitude =  0.7805

 Excited state  14: excitation energy (eV) =     527.3713
 Total energy for state  14:                  -210.03798986 au
    Multiplicity: Singlet
    Trans. Mom.: -0.0080 X   0.0062 Y  -0.0096 Z
    Strength   :     0.0025368451
    D(    1) --> V(   12) amplitude = -0.3277
    D(    1) --> V(   13) amplitude =  0.7265
    D(    1) --> V(   14) amplitude =  0.5172
    D(    1) --> V(   17) amplitude = -0.2489

 Excited state  15: excitation energy (eV) =     527.5236
 Total energy for state  15:                  -210.03239100 au
    Multiplicity: Singlet
    Trans. Mom.:  0.0054 X   0.0083 Y   0.0075 Z
    Strength   :     0.0020105895
    D(    1) --> V(   11) amplitude = -0.3054
    D(    1) --> V(   13) amplitude = -0.4752
    D(    1) --> V(   14) amplitude =  0.6477
    D(    1) --> V(   16) amplitude = -0.4504

 Excited state  16: excitation energy (eV) =     527.8459
 Total energy for state  16:                  -210.02054697 au
    Multiplicity: Singlet
    Trans. Mom.: -0.0112 X   0.0047 Y  -0.0094 Z
    Strength   :     0.0030698123
    D(    1) --> V(   12) amplitude = -0.2267
    D(    1) --> V(   13) amplitude = -0.2623
    D(    1) --> V(   15) amplitude =  0.8017
    D(    1) --> V(   16) amplitude =  0.2301
    D(    1) --> V(   17) amplitude = -0.3881

 Excited state  17: excitation energy (eV) =     528.0052
 Total energy for state  17:                  -210.01469416 au
    Multiplicity: Singlet
    Trans. Mom.:  0.0137 X  -0.0138 Y   0.0059 Z
    Strength   :     0.0053342584
    D(    1) --> V(   15) amplitude =  0.5112
    D(    1) --> V(   17) amplitude =  0.7856

 Excited state  18: excitation energy (eV) =     528.7201
 Total energy for state  18:                  -209.98842353 au
    Multiplicity: Singlet
    Trans. Mom.:  0.0210 X   0.0072 Y  -0.0033 Z
    Strength   :     0.0065396588
    D(    1) --> V(   18) amplitude =  0.8811
    D(    1) --> V(   19) amplitude = -0.3408

 Excited state  19: excitation energy (eV) =     528.9032
 Total energy for state  19:                  -209.98169125 au
    Multiplicity: Singlet
    Trans. Mom.: -0.0051 X  -0.0063 Y  -0.0170 Z
    Strength   :     0.0046087589
    D(    1) --> V(   16) amplitude = -0.2246
    D(    1) --> V(   18) amplitude =  0.3585
    D(    1) --> V(   19) amplitude =  0.8736

 Excited state  20: excitation energy (eV) =     529.2646
 Total energy for state  20:                  -209.96841185 au
    Multiplicity: Singlet
    Trans. Mom.: -0.0075 X  -0.0028 Y  -0.0061 Z
    Strength   :     0.0013154550
    D(    1) --> V(   20) amplitude =  0.9426

 Excited state  21: excitation energy (eV) =     530.3597
 Total energy for state  21:                  -209.92816640 au
    Multiplicity: Singlet
    Trans. Mom.:  0.0011 X   0.0095 Y   0.0147 Z
    Strength   :     0.0040048063
    D(    1) --> V(   21) amplitude =  0.7146
    D(    1) --> V(   22) amplitude =  0.6034
    D(    1) --> V(   23) amplitude = -0.2220

 Excited state  22: excitation energy (eV) =     530.5572
 Total energy for state  22:                  -209.92091061 au
    Multiplicity: Singlet
    Trans. Mom.: -0.0001 X   0.0055 Y   0.0068 Z
    Strength   :     0.0009868994
    D(    1) --> V(   21) amplitude = -0.6361
    D(    1) --> V(   22) amplitude =  0.7388

 Excited state  23: excitation energy (eV) =     531.0804
 Total energy for state  23:                  -209.90168202 au
    Multiplicity: Singlet
    Trans. Mom.:  0.0034 X   0.0065 Y  -0.0028 Z
    Strength   :     0.0008027961
    D(    1) --> V(   21) amplitude =  0.2123
    D(    1) --> V(   23) amplitude =  0.8778
    D(    1) --> V(   24) amplitude =  0.3711

 Excited state  24: excitation energy (eV) =     531.4866
 Total energy for state  24:                  -209.88675444 au
    Multiplicity: Singlet
    Trans. Mom.:  0.0103 X   0.0017 Y  -0.0077 Z
    Strength   :     0.0021979795
    D(    1) --> V(   23) amplitude = -0.3588
    D(    1) --> V(   24) amplitude =  0.7885
    D(    1) --> V(   25) amplitude = -0.3791
    D(    1) --> V(   26) amplitude = -0.2596

 Excited state  25: excitation energy (eV) =     531.6465
 Total energy for state  25:                  -209.88087762 au
    Multiplicity: Singlet
    Trans. Mom.: -0.0051 X   0.0115 Y   0.0065 Z
    Strength   :     0.0026084734
    D(    1) --> V(   24) amplitude =  0.3975
    D(    1) --> V(   25) amplitude =  0.8454
    D(    1) --> V(   26) amplitude =  0.2645

 Excited state  26: excitation energy (eV) =     532.1771
 Total energy for state  26:                  -209.86137869 au
    Multiplicity: Singlet
    Trans. Mom.: -0.0001 X  -0.0006 Y   0.0065 Z
    Strength   :     0.0005507306
    D(    1) --> V(   25) amplitude = -0.3593
    D(    1) --> V(   26) amplitude =  0.9213

 Excited state  27: excitation energy (eV) =     532.9777
 Total energy for state  27:                  -209.83195910 au
    Multiplicity: Singlet
    Trans. Mom.:  0.0030 X   0.0027 Y  -0.0015 Z
    Strength   :     0.0002491264
    D(    1) --> V(   27) amplitude =  0.9625

 Excited state  28: excitation energy (eV) =     533.2607
 Total energy for state  28:                  -209.82155859 au
    Multiplicity: Singlet
    Trans. Mom.:  0.0010 X  -0.0045 Y   0.0011 Z
    Strength   :     0.0002962814
    D(    1) --> V(   28) amplitude =  0.9838

 Excited state  29: excitation energy (eV) =     533.9716
 Total energy for state  29:                  -209.79543154 au
    Multiplicity: Singlet
    Trans. Mom.:  0.0017 X   0.0039 Y  -0.0014 Z
    Strength   :     0.0002593104
    D(    1) --> V(   27) amplitude = -0.2201
    D(    1) --> V(   29) amplitude =  0.9616

 Excited state  30: excitation energy (eV) =     534.9849
 Total energy for state  30:                  -209.75819555 au
    Multiplicity: Singlet
    Trans. Mom.: -0.0049 X  -0.0004 Y   0.0039 Z
    Strength   :     0.0005100132
    D(    1) --> V(   30) amplitude =  0.9832

 Excited state  31: excitation energy (eV) =     535.8967
 Total energy for state  31:                  -209.72468717 au
    Multiplicity: Singlet
    Trans. Mom.: -0.0014 X   0.0105 Y  -0.0009 Z
    Strength   :     0.0014947858
    D(    1) --> V(   31) amplitude =  0.9710

 Excited state  32: excitation energy (eV) =     536.6397
 Total energy for state  32:                  -209.69738127 au
    Multiplicity: Singlet
    Trans. Mom.: -0.0143 X   0.0066 Y   0.0051 Z
    Strength   :     0.0035917367
    D(    1) --> V(   32) amplitude =  0.9233
    D(    1) --> V(   33) amplitude = -0.2210

 Excited state  33: excitation energy (eV) =     536.9502
 Total energy for state  33:                  -209.68597190 au
    Multiplicity: Singlet
    Trans. Mom.:  0.0106 X   0.0051 Y  -0.0010 Z
    Strength   :     0.0018211586
    D(    1) --> V(   33) amplitude =  0.9451

 Excited state  34: excitation energy (eV) =     537.2995
 Total energy for state  34:                  -209.67313322 au
    Multiplicity: Singlet
    Trans. Mom.:  0.0038 X  -0.0060 Y   0.0035 Z
    Strength   :     0.0008271557
    D(    1) --> V(   32) amplitude = -0.2136
    D(    1) --> V(   34) amplitude =  0.9533

 Excited state  35: excitation energy (eV) =     537.8928
 Total energy for state  35:                  -209.65133054 au
    Multiplicity: Singlet
    Trans. Mom.: -0.0026 X  -0.0087 Y   0.0054 Z
    Strength   :     0.0014800404
    D(    1) --> V(   35) amplitude =  0.9498

 Excited state  36: excitation energy (eV) =     538.6736
 Total energy for state  36:                  -209.62263622 au
    Multiplicity: Singlet
    Trans. Mom.:  0.0025 X   0.0056 Y  -0.0069 Z
    Strength   :     0.0011313748
    D(    1) --> V(   36) amplitude =  0.9556

 Excited state  37: excitation energy (eV) =     539.4144
 Total energy for state  37:                  -209.59541221 au
    Multiplicity: Singlet
    Trans. Mom.:  0.0077 X  -0.0019 Y   0.0004 Z
    Strength   :     0.0008257410
    D(    1) --> V(   37) amplitude =  0.9718

 Excited state  38: excitation energy (eV) =     539.8859
 Total energy for state  38:                  -209.57808541 au
    Multiplicity: Singlet
    Trans. Mom.: -0.0056 X   0.0024 Y  -0.0086 Z
    Strength   :     0.0014527248
    D(    1) --> V(   38) amplitude =  0.5701
    D(    1) --> V(   39) amplitude =  0.7331
    D(    1) --> V(   40) amplitude = -0.2405

 Excited state  39: excitation energy (eV) =     540.0867
 Total energy for state  39:                  -209.57070531 au
    Multiplicity: Singlet
    Trans. Mom.: -0.0003 X  -0.0089 Y   0.0098 Z
    Strength   :     0.0023056160
    D(    1) --> V(   38) amplitude =  0.7599
    D(    1) --> V(   39) amplitude = -0.5219
    D(    1) --> V(   41) amplitude =  0.2138

 Excited state  40: excitation energy (eV) =     540.4675
 Total energy for state  40:                  -209.55671169 au
    Multiplicity: Singlet
    Trans. Mom.: -0.0026 X  -0.0006 Y   0.0001 Z
    Strength   :     0.0000968368
    D(    1) --> V(   39) amplitude =  0.2833
    D(    1) --> V(   40) amplitude =  0.9471

 Excited state  41: excitation energy (eV) =     540.9564
 Total energy for state  41:                  -209.53874508 au
    Multiplicity: Singlet
    Trans. Mom.: -0.0092 X  -0.0169 Y  -0.0046 Z
    Strength   :     0.0051709200
    D(    1) --> V(   38) amplitude = -0.2190
    D(    1) --> V(   41) amplitude =  0.9378

 Excited state  42: excitation energy (eV) =     541.0798
 Total energy for state  42:                  -209.53421289 au
    Multiplicity: Singlet
    Trans. Mom.: -0.0108 X  -0.0065 Y  -0.0156 Z
    Strength   :     0.0053349006
    D(    1) --> V(   39) amplitude = -0.2841
    D(    1) --> V(   42) amplitude =  0.8429
    D(    1) --> V(   43) amplitude = -0.3891

 Excited state  43: excitation energy (eV) =     541.8816
 Total energy for state  43:                  -209.50474643 au
    Multiplicity: Singlet
    Trans. Mom.:  0.0071 X   0.0065 Y   0.0049 Z
    Strength   :     0.0015443327
    D(    1) --> V(   42) amplitude =  0.3707
    D(    1) --> V(   43) amplitude =  0.8319
    D(    1) --> V(   44) amplitude = -0.3429

 Excited state  44: excitation energy (eV) =     542.5799
 Total energy for state  44:                  -209.47908231 au
    Multiplicity: Singlet
    Trans. Mom.:  0.0082 X  -0.0099 Y   0.0069 Z
    Strength   :     0.0028191347
    D(    1) --> V(   42) amplitude =  0.2436
    D(    1) --> V(   43) amplitude =  0.2720
    D(    1) --> V(   44) amplitude =  0.8782

 Excited state  45: excitation energy (eV) =     543.2326
 Total energy for state  45:                  -209.45509582 au
    Multiplicity: Singlet
    Trans. Mom.:  0.0030 X  -0.0004 Y   0.0009 Z
    Strength   :     0.0001316464
    D(    1) --> V(   45) amplitude =  0.9351
    D(    1) --> V(   47) amplitude =  0.2621

 Excited state  46: excitation energy (eV) =     543.8077
 Total energy for state  46:                  -209.43396376 au
    Multiplicity: Singlet
    Trans. Mom.:  0.0060 X   0.0043 Y   0.0038 Z
    Strength   :     0.0009122007
    D(    1) --> V(   46) amplitude =  0.9594

 Excited state  47: excitation energy (eV) =     544.3893
 Total energy for state  47:                  -209.41259057 au
    Multiplicity: Singlet
    Trans. Mom.:  0.0000 X  -0.0091 Y  -0.0027 Z
    Strength   :     0.0012080328
    D(    1) --> V(   45) amplitude = -0.2533
    D(    1) --> V(   47) amplitude =  0.9578

 Excited state  48: excitation energy (eV) =     545.1674
 Total energy for state  48:                  -209.38399304 au
    Multiplicity: Singlet
    Trans. Mom.: -0.0045 X   0.0119 Y  -0.0030 Z
    Strength   :     0.0022831229
    D(    1) --> V(   48) amplitude =  0.9804

 Excited state  49: excitation energy (eV) =     546.3150
 Total energy for state  49:                  -209.34182278 au
    Multiplicity: Singlet
    Trans. Mom.: -0.0121 X   0.0178 Y  -0.0082 Z
    Strength   :     0.0071016084
    D(    1) --> V(   49) amplitude =  0.9493

 Excited state  50: excitation energy (eV) =     546.7896
 Total energy for state  50:                  -209.32438066 au
    Multiplicity: Singlet
    Trans. Mom.:  0.0035 X   0.0032 Y  -0.0105 Z
    Strength   :     0.0017838107
    D(    1) --> V(   50) amplitude = -0.4718
    D(    1) --> V(   51) amplitude =  0.7377
    D(    1) --> V(   52) amplitude =  0.2727
    D(    1) --> V(   53) amplitude = -0.3470

 Excited state  51: excitation energy (eV) =     547.2702
 Total energy for state  51:                  -209.30671713 au
    Multiplicity: Singlet
    Trans. Mom.:  0.0055 X   0.0249 Y   0.0039 Z
    Strength   :     0.0089031178
    D(    1) --> V(   50) amplitude =  0.6652
    D(    1) --> V(   53) amplitude = -0.6590
    D(    1) --> V(   57) amplitude = -0.2420

 Excited state  52: excitation energy (eV) =     547.9292
 Total energy for state  52:                  -209.28249968 au
    Multiplicity: Singlet
    Trans. Mom.: -0.0037 X  -0.0079 Y  -0.0045 Z
    Strength   :     0.0013020917
    D(    1) --> V(   50) amplitude =  0.5437
    D(    1) --> V(   51) amplitude =  0.4562
    D(    1) --> V(   52) amplitude =  0.4205
    D(    1) --> V(   53) amplitude =  0.5446

 Excited state  53: excitation energy (eV) =     548.0215
 Total energy for state  53:                  -209.27910937 au
    Multiplicity: Singlet
    Trans. Mom.: -0.0010 X   0.0068 Y  -0.0012 Z
    Strength   :     0.0006605104
    D(    1) --> V(   51) amplitude = -0.4372
    D(    1) --> V(   52) amplitude =  0.8429
    D(    1) --> V(   53) amplitude = -0.2471

 Excited state  54: excitation energy (eV) =     548.8077
 Total energy for state  54:                  -209.25021452 au
    Multiplicity: Singlet
    Trans. Mom.: -0.0130 X   0.0104 Y  -0.0137 Z
    Strength   :     0.0062452085
    D(    1) --> V(   54) amplitude =  0.8865
    D(    1) --> V(   56) amplitude =  0.2655

 Excited state  55: excitation energy (eV) =     549.5094
 Total energy for state  55:                  -209.22442790 au
    Multiplicity: Singlet
    Trans. Mom.: -0.0098 X  -0.0070 Y   0.0067 Z
    Strength   :     0.0025562998
    D(    1) --> V(   53) amplitude = -0.2595
    D(    1) --> V(   55) amplitude = -0.3726
    D(    1) --> V(   56) amplitude =  0.5968
    D(    1) --> V(   57) amplitude =  0.6448

 Excited state  56: excitation energy (eV) =     549.6679
 Total energy for state  56:                  -209.21860453 au
    Multiplicity: Singlet
    Trans. Mom.:  0.0064 X  -0.0089 Y   0.0123 Z
    Strength   :     0.0036792400
    D(    1) --> V(   55) amplitude =  0.7943
    D(    1) --> V(   57) amplitude =  0.4372
    D(    1) --> V(   58) amplitude = -0.3099
    D(    1) --> V(   59) amplitude =  0.2142

 Excited state  57: excitation energy (eV) =     549.7063
 Total energy for state  57:                  -209.21719294 au
    Multiplicity: Singlet
    Trans. Mom.: -0.0146 X   0.0045 Y  -0.0062 Z
    Strength   :     0.0036839483
    D(    1) --> V(   54) amplitude = -0.3989
    D(    1) --> V(   55) amplitude =  0.4342
    D(    1) --> V(   56) amplitude =  0.6758
    D(    1) --> V(   57) amplitude = -0.3281
    D(    1) --> V(   58) amplitude =  0.2483

 Excited state  58: excitation energy (eV) =     550.2129
 Total energy for state  58:                  -209.19857457 au
    Multiplicity: Singlet
    Trans. Mom.: -0.0099 X  -0.0091 Y  -0.0236 Z
    Strength   :     0.0099554023
    D(    1) --> V(   56) amplitude = -0.2640
    D(    1) --> V(   57) amplitude =  0.3889
    D(    1) --> V(   58) amplitude =  0.7232
    D(    1) --> V(   59) amplitude = -0.4497

 Excited state  59: excitation energy (eV) =     551.4541
 Total energy for state  59:                  -209.15296397 au
    Multiplicity: Singlet
    Trans. Mom.: -0.0028 X   0.0008 Y   0.0087 Z
    Strength   :     0.0011481232
    D(    1) --> V(   58) amplitude =  0.5293
    D(    1) --> V(   59) amplitude =  0.8351

 Excited state  60: excitation energy (eV) =     552.6793
 Total energy for state  60:                  -209.10793664 au
    Multiplicity: Singlet
    Trans. Mom.:  0.0046 X  -0.0085 Y  -0.0138 Z
    Strength   :     0.0038444035
    D(    1) --> V(   60) amplitude =  0.9644

 Excited state  61: excitation energy (eV) =     553.0212
 Total energy for state  61:                  -209.09537237 au
    Multiplicity: Singlet
    Trans. Mom.: -0.0154 X   0.0031 Y   0.0067 Z
    Strength   :     0.0039355381
    D(    1) --> V(   61) amplitude =  0.9152
    D(    1) --> V(   62) amplitude = -0.3463

 Excited state  62: excitation energy (eV) =     553.6063
 Total energy for state  62:                  -209.07386978 au
    Multiplicity: Singlet
    Trans. Mom.: -0.0040 X   0.0030 Y   0.0097 Z
    Strength   :     0.0016245509
    D(    1) --> V(   61) amplitude =  0.3415
    D(    1) --> V(   62) amplitude =  0.9152

 Excited state  63: excitation energy (eV) =     554.2867
 Total energy for state  63:                  -209.04886628 au
    Multiplicity: Singlet
    Trans. Mom.:  0.0271 X   0.0152 Y  -0.0101 Z
    Strength   :     0.0144649382
    D(    1) --> V(   63) amplitude =  0.2596
    D(    1) --> V(   64) amplitude =  0.7247
    D(    1) --> V(   65) amplitude = -0.5865

 Excited state  64: excitation energy (eV) =     554.5137
 Total energy for state  64:                  -209.04052432 au
    Multiplicity: Singlet
    Trans. Mom.:  0.0231 X  -0.0089 Y  -0.0266 Z
    Strength   :     0.0179302083
    D(    1) --> V(   63) amplitude =  0.7976
    D(    1) --> V(   65) amplitude =  0.3489
    D(    1) --> V(   66) amplitude = -0.4071

 Excited state  65: excitation energy (eV) =     555.2934
 Total energy for state  65:                  -209.01187000 au
    Multiplicity: Singlet
    Trans. Mom.:  0.0009 X  -0.0043 Y  -0.0057 Z
    Strength   :     0.0006915580
    D(    1) --> V(   63) amplitude = -0.2384
    D(    1) --> V(   64) amplitude =  0.6445
    D(    1) --> V(   65) amplitude =  0.7171

 Excited state  66: excitation energy (eV) =     555.6041
 Total energy for state  66:                  -209.00045174 au
    Multiplicity: Singlet
    Trans. Mom.: -0.0186 X  -0.0045 Y   0.0164 Z
    Strength   :     0.0086730264
    D(    1) --> V(   63) amplitude =  0.4505
    D(    1) --> V(   66) amplitude =  0.8644

 Excited state  67: excitation energy (eV) =     557.0661
 Total energy for state  67:                  -208.94672582 au
    Multiplicity: Singlet
    Trans. Mom.: -0.0078 X  -0.0024 Y   0.0093 Z
    Strength   :     0.0021024498
    D(    1) --> V(   67) amplitude =  0.8839
    D(    1) --> V(   68) amplitude = -0.3596
    D(    1) --> V(   70) amplitude =  0.2230

 Excited state  68: excitation energy (eV) =     557.5675
 Total energy for state  68:                  -208.92830111 au
    Multiplicity: Singlet
    Trans. Mom.:  0.0009 X  -0.0116 Y   0.0059 Z
    Strength   :     0.0023159040
    D(    1) --> V(   68) amplitude =  0.3368
    D(    1) --> V(   69) amplitude =  0.9045
    D(    1) --> V(   70) amplitude = -0.2335

 Excited state  69: excitation energy (eV) =     557.8430
 Total energy for state  69:                  -208.91817440 au
    Multiplicity: Singlet
    Trans. Mom.:  0.0024 X   0.0010 Y  -0.0007 Z
    Strength   :     0.0000980049
    D(    1) --> V(   67) amplitude =  0.3980
    D(    1) --> V(   68) amplitude =  0.8502
    D(    1) --> V(   69) amplitude = -0.3368

 Excited state  70: excitation energy (eV) =     557.9711
 Total energy for state  70:                  -208.91346607 au
    Multiplicity: Singlet
    Trans. Mom.: -0.0021 X  -0.0028 Y   0.0013 Z
    Strength   :     0.0001905100
    D(    1) --> V(   70) amplitude =  0.9364

 Excited state  71: excitation energy (eV) =     559.5709
 Total energy for state  71:                  -208.85467730 au
    Multiplicity: Singlet
    Trans. Mom.:  0.0129 X  -0.0119 Y   0.0104 Z
    Strength   :     0.0057214856
    D(    1) --> V(   71) amplitude =  0.9612

 Excited state  72: excitation energy (eV) =     560.5620
 Total energy for state  72:                  -208.81825315 au
    Multiplicity: Singlet
    Trans. Mom.: -0.0044 X   0.0097 Y   0.0118 Z
    Strength   :     0.0034523621
    D(    1) --> V(   72) amplitude =  0.9349
    D(    1) --> V(   73) amplitude =  0.2814

 Excited state  73: excitation energy (eV) =     560.9971
 Total energy for state  73:                  -208.80226560 au
    Multiplicity: Singlet
    Trans. Mom.: -0.0046 X   0.0168 Y  -0.0000 Z
    Strength   :     0.0041665503
    D(    1) --> V(   72) amplitude = -0.2379
    D(    1) --> V(   73) amplitude =  0.8771
    D(    1) --> V(   75) amplitude = -0.3376

 Excited state  74: excitation energy (eV) =     561.4459
 Total energy for state  74:                  -208.78577108 au
    Multiplicity: Singlet
    Trans. Mom.: -0.0086 X   0.0105 Y  -0.0099 Z
    Strength   :     0.0038877006
    D(    1) --> V(   71) amplitude =  0.2352
    D(    1) --> V(   73) amplitude = -0.2185
    D(    1) --> V(   74) amplitude =  0.7879
    D(    1) --> V(   75) amplitude = -0.4673

 Excited state  75: excitation energy (eV) =     561.8341
 Total energy for state  75:                  -208.77150311 au
    Multiplicity: Singlet
    Trans. Mom.:  0.0001 X  -0.0041 Y  -0.0033 Z
    Strength   :     0.0003804972
    D(    1) --> V(   73) amplitude =  0.2564
    D(    1) --> V(   74) amplitude =  0.5157
    D(    1) --> V(   75) amplitude =  0.7255
    D(    1) --> V(   77) amplitude = -0.3295

 Excited state  76: excitation energy (eV) =     562.2728
 Total energy for state  76:                  -208.75538310 au
    Multiplicity: Singlet
    Trans. Mom.: -0.0055 X   0.0059 Y  -0.0009 Z
    Strength   :     0.0009065248
    D(    1) --> V(   76) amplitude =  0.9070
    D(    1) --> V(   77) amplitude = -0.2989

 Excited state  77: excitation energy (eV) =     562.4632
 Total energy for state  77:                  -208.74838512 au
    Multiplicity: Singlet
    Trans. Mom.: -0.0051 X  -0.0045 Y   0.0099 Z
    Strength   :     0.0019736688
    D(    1) --> V(   75) amplitude =  0.2662
    D(    1) --> V(   76) amplitude =  0.3442
    D(    1) --> V(   77) amplitude =  0.8430

 Excited state  78: excitation energy (eV) =     562.7813
 Total energy for state  78:                  -208.73669691 au
    Multiplicity: Singlet
    Trans. Mom.:  0.0075 X   0.0018 Y   0.0063 Z
    Strength   :     0.0013799580
    D(    1) --> V(   78) amplitude =  0.9314

 Excited state  79: excitation energy (eV) =     562.9953
 Total energy for state  79:                  -208.72883199 au
    Multiplicity: Singlet
    Trans. Mom.: -0.0040 X   0.0119 Y   0.0027 Z
    Strength   :     0.0022628020
    D(    1) --> V(   78) amplitude = -0.2207
    D(    1) --> V(   79) amplitude =  0.9255

 Excited state  80: excitation energy (eV) =     564.3537
 Total energy for state  80:                  -208.67891267 au
    Multiplicity: Singlet
    Trans. Mom.: -0.0005 X   0.0176 Y  -0.0015 Z
    Strength   :     0.0042965381
    D(    1) --> V(   80) amplitude =  0.9466
    D(    1) --> V(   81) amplitude = -0.2225

 Excited state  81: excitation energy (eV) =     565.0836
 Total energy for state  81:                  -208.65208726 au
    Multiplicity: Singlet
    Trans. Mom.: -0.0063 X  -0.0074 Y  -0.0053 Z
    Strength   :     0.0016895640
    D(    1) --> V(   80) amplitude =  0.2250
    D(    1) --> V(   81) amplitude =  0.9444

 Excited state  82: excitation energy (eV) =     565.4923
 Total energy for state  82:                  -208.63706814 au
    Multiplicity: Singlet
    Trans. Mom.: -0.0094 X  -0.0030 Y  -0.0072 Z
    Strength   :     0.0020867112
    D(    1) --> V(   82) amplitude =  0.8655
    D(    1) --> V(   83) amplitude = -0.3865
    D(    1) --> V(   84) amplitude =  0.2317

 Excited state  83: excitation energy (eV) =     565.8879
 Total energy for state  83:                  -208.62253076 au
    Multiplicity: Singlet
    Trans. Mom.:  0.0056 X  -0.0086 Y   0.0017 Z
    Strength   :     0.0015087711
    D(    1) --> V(   82) amplitude =  0.4242
    D(    1) --> V(   83) amplitude =  0.8080
    D(    1) --> V(   84) amplitude = -0.3415

 Excited state  84: excitation energy (eV) =     566.3788
 Total energy for state  84:                  -208.60449100 au
    Multiplicity: Singlet
    Trans. Mom.:  0.0014 X   0.0022 Y   0.0118 Z
    Strength   :     0.0020220913
    D(    1) --> V(   83) amplitude =  0.4044
    D(    1) --> V(   84) amplitude =  0.8046
    D(    1) --> V(   85) amplitude =  0.2153
    D(    1) --> V(   86) amplitude =  0.2651

 Excited state  85: excitation energy (eV) =     566.6477
 Total energy for state  85:                  -208.59460725 au
    Multiplicity: Singlet
    Trans. Mom.:  0.0009 X  -0.0002 Y  -0.0041 Z
    Strength   :     0.0002480410
    D(    1) --> V(   85) amplitude =  0.9639

 Excited state  86: excitation energy (eV) =     567.0576
 Total energy for state  86:                  -208.57954452 au
    Multiplicity: Singlet
    Trans. Mom.: -0.0042 X  -0.0020 Y   0.0084 Z
    Strength   :     0.0012832351
    D(    1) --> V(   84) amplitude = -0.3021
    D(    1) --> V(   86) amplitude =  0.8516
    D(    1) --> V(   88) amplitude = -0.3807

 Excited state  87: excitation energy (eV) =     567.2774
 Total energy for state  87:                  -208.57146559 au
    Multiplicity: Singlet
    Trans. Mom.: -0.0024 X   0.0028 Y  -0.0057 Z
    Strength   :     0.0006409642
    D(    1) --> V(   86) amplitude =  0.3798
    D(    1) --> V(   88) amplitude =  0.8900

 Excited state  88: excitation energy (eV) =     567.4350
 Total energy for state  88:                  -208.56567619 au
    Multiplicity: Singlet
    Trans. Mom.:  0.0085 X  -0.0022 Y   0.0036 Z
    Strength   :     0.0012586846
    D(    1) --> V(   87) amplitude =  0.9145
    D(    1) --> V(   89) amplitude =  0.3230

 Excited state  89: excitation energy (eV) =     567.6386
 Total energy for state  89:                  -208.55819244 au
    Multiplicity: Singlet
    Trans. Mom.:  0.0113 X   0.0080 Y   0.0105 Z
    Strength   :     0.0041820863
    D(    1) --> V(   87) amplitude = -0.3377
    D(    1) --> V(   89) amplitude =  0.8761

 Excited state  90: excitation energy (eV) =     568.6813
 Total energy for state  90:                  -208.51987604 au
    Multiplicity: Singlet
    Trans. Mom.:  0.0149 X   0.0058 Y  -0.0043 Z
    Strength   :     0.0038167741
    D(    1) --> V(   91) amplitude =  0.8452
    D(    1) --> V(   92) amplitude =  0.4631

 Excited state  91: excitation energy (eV) =     568.7879
 Total energy for state  91:                  -208.51595870 au
    Multiplicity: Singlet
    Trans. Mom.:  0.0005 X  -0.0013 Y  -0.0059 Z
    Strength   :     0.0005124748
    D(    1) --> V(   90) amplitude =  0.9738

 Excited state  92: excitation energy (eV) =     569.2803
 Total energy for state  92:                  -208.49786363 au
    Multiplicity: Singlet
    Trans. Mom.:  0.0091 X   0.0012 Y  -0.0021 Z
    Strength   :     0.0012500952
    D(    1) --> V(   91) amplitude = -0.4710
    D(    1) --> V(   92) amplitude =  0.8170

 Excited state  93: excitation energy (eV) =     569.9196
 Total energy for state  93:                  -208.47436706 au
    Multiplicity: Singlet
    Trans. Mom.: -0.0009 X  -0.0009 Y  -0.0045 Z
    Strength   :     0.0003070970
    D(    1) --> V(   93) amplitude =  0.9565

 Excited state  94: excitation energy (eV) =     570.0160
 Total energy for state  94:                  -208.47082590 au
    Multiplicity: Singlet
    Trans. Mom.:  0.0027 X   0.0001 Y   0.0029 Z
    Strength   :     0.0002202311
    D(    1) --> V(   92) amplitude = -0.2150
    D(    1) --> V(   94) amplitude =  0.9484

 Excited state  95: excitation energy (eV) =     570.0165
 Total energy for state  95:                  -208.47080794 au
    Multiplicity: Singlet
    Trans. Mom.: -0.0104 X  -0.0057 Y  -0.0055 Z
    Strength   :     0.0024098547
    D(    1) --> V(   95) amplitude =  0.9531

 Excited state  96: excitation energy (eV) =     570.8019
 Total energy for state  96:                  -208.44194507 au
    Multiplicity: Singlet
    Trans. Mom.:  0.0074 X   0.0076 Y   0.0036 Z
    Strength   :     0.0017648823
    D(    1) --> V(   96) amplitude =  0.5086
    D(    1) --> V(   97) amplitude =  0.8008

 Excited state  97: excitation energy (eV) =     570.9184
 Total energy for state  97:                  -208.43766412 au
    Multiplicity: Singlet
    Trans. Mom.: -0.0039 X  -0.0053 Y  -0.0053 Z
    Strength   :     0.0009969795
    D(    1) --> V(   96) amplitude =  0.8295
    D(    1) --> V(   97) amplitude = -0.5137

 Excited state  98: excitation energy (eV) =     572.1220
 Total energy for state  98:                  -208.39343125 au
    Multiplicity: Singlet
    Trans. Mom.:  0.0020 X   0.0066 Y   0.0023 Z
    Strength   :     0.0007365734
    D(    1) --> V(   98) amplitude =  0.9502

 Excited state  99: excitation energy (eV) =     572.8082
 Total energy for state  99:                  -208.36821314 au
    Multiplicity: Singlet
    Trans. Mom.:  0.0070 X   0.0045 Y   0.0026 Z
    Strength   :     0.0010653511
    D(    1) --> V(   99) amplitude =  0.9507

 Excited state 100: excitation energy (eV) =     573.2620
 Total energy for state 100:                  -208.35153870 au
    Multiplicity: Singlet
    Trans. Mom.:  0.0001 X  -0.0050 Y   0.0040 Z
    Strength   :     0.0005817225
    D(    1) --> V(   99) amplitude = -0.2324
    D(    1) --> V(  100) amplitude =  0.9457

 Excited state 101: excitation energy (eV) =     573.9570
 Total energy for state 101:                  -208.32599533 au
    Multiplicity: Singlet
    Trans. Mom.: -0.0099 X   0.0043 Y  -0.0070 Z
    Strength   :     0.0023131613
    D(    1) --> V(  101) amplitude =  0.9708

 Excited state 102: excitation energy (eV) =     574.1156
 Total energy for state 102:                  -208.32016841 au
    Multiplicity: Singlet
    Trans. Mom.:  0.0070 X   0.0018 Y   0.0006 Z
    Strength   :     0.0007414514
    D(    1) --> V(  102) amplitude =  0.9002
    D(    1) --> V(  105) amplitude =  0.3845

 Excited state 103: excitation energy (eV) =     574.5048
 Total energy for state 103:                  -208.30586623 au
    Multiplicity: Singlet
    Trans. Mom.:  0.0024 X   0.0015 Y   0.0011 Z
    Strength   :     0.0001290025
    D(    1) --> V(  103) amplitude =  0.9461

 Excited state 104: excitation energy (eV) =     575.2210
 Total energy for state 104:                  -208.27954535 au
    Multiplicity: Singlet
    Trans. Mom.: -0.0010 X   0.0021 Y  -0.0027 Z
    Strength   :     0.0001832820
    D(    1) --> V(  102) amplitude = -0.3535
    D(    1) --> V(  103) amplitude =  0.2160
    D(    1) --> V(  104) amplitude = -0.5265
    D(    1) --> V(  105) amplitude =  0.6379
    D(    1) --> V(  106) amplitude =  0.3578

 Excited state 105: excitation energy (eV) =     575.6294
 Total energy for state 105:                  -208.26453705 au
    Multiplicity: Singlet
    Trans. Mom.:  0.0010 X   0.0014 Y   0.0007 Z
    Strength   :     0.0000457537
    D(    1) --> V(  104) amplitude =  0.8216
    D(    1) --> V(  105) amplitude =  0.5332

 Excited state 106: excitation energy (eV) =     575.9624
 Total energy for state 106:                  -208.25229963 au
    Multiplicity: Singlet
    Trans. Mom.: -0.0015 X  -0.0012 Y  -0.0007 Z
    Strength   :     0.0000573163
    D(    1) --> V(  105) amplitude = -0.3186
    D(    1) --> V(  106) amplitude =  0.9242

 Excited state 107: excitation energy (eV) =     576.5544
 Total energy for state 107:                  -208.23054416 au
    Multiplicity: Singlet
    Trans. Mom.:  0.0003 X   0.0059 Y   0.0002 Z
    Strength   :     0.0004888206
    D(    1) --> V(  107) amplitude =  0.9915

 Excited state 108: excitation energy (eV) =     577.8704
 Total energy for state 108:                  -208.18218329 au
    Multiplicity: Singlet
    Trans. Mom.:  0.0013 X   0.0048 Y   0.0101 Z
    Strength   :     0.0017886358
    D(    1) --> V(  108) amplitude =  0.9770

 Excited state 109: excitation energy (eV) =     578.9662
 Total energy for state 109:                  -208.14191141 au
    Multiplicity: Singlet
    Trans. Mom.: -0.0003 X   0.0037 Y   0.0021 Z
    Strength   :     0.0002545165
    D(    1) --> V(  109) amplitude =  0.9705

 Excited state 110: excitation energy (eV) =     579.4883
 Total energy for state 110:                  -208.12272519 au
    Multiplicity: Singlet
    Trans. Mom.: -0.0024 X  -0.0054 Y  -0.0020 Z
    Strength   :     0.0005454084
    D(    1) --> V(  110) amplitude =  0.9887

 Excited state 111: excitation energy (eV) =     581.3890
 Total energy for state 111:                  -208.05287563 au
    Multiplicity: Singlet
    Trans. Mom.:  0.0057 X   0.0034 Y   0.0107 Z
    Strength   :     0.0022417130
    D(    1) --> V(  111) amplitude =  0.8713
    D(    1) --> V(  112) amplitude = -0.4517

 Excited state 112: excitation energy (eV) =     582.4925
 Total energy for state 112:                  -208.01232188 au
    Multiplicity: Singlet
    Trans. Mom.:  0.0003 X   0.0029 Y  -0.0031 Z
    Strength   :     0.0002607923
    D(    1) --> V(  111) amplitude =  0.4672
    D(    1) --> V(  112) amplitude =  0.8484

 Excited state 113: excitation energy (eV) =     583.0782
 Total energy for state 113:                  -207.99079822 au
    Multiplicity: Singlet
    Trans. Mom.:  0.0018 X   0.0027 Y   0.0051 Z
    Strength   :     0.0005211499
    D(    1) --> V(  113) amplitude =  0.9176
    D(    1) --> V(  115) amplitude = -0.2585

 Excited state 114: excitation energy (eV) =     583.8092
 Total energy for state 114:                  -207.96393428 au
    Multiplicity: Singlet
    Trans. Mom.: -0.0102 X   0.0024 Y  -0.0118 Z
    Strength   :     0.0035668739
    D(    1) --> V(  113) amplitude =  0.3306
    D(    1) --> V(  114) amplitude =  0.2209
    D(    1) --> V(  115) amplitude =  0.7508
    D(    1) --> V(  117) amplitude = -0.4781

 Excited state 115: excitation energy (eV) =     583.9838
 Total energy for state 115:                  -207.95751789 au
    Multiplicity: Singlet
    Trans. Mom.:  0.0032 X  -0.0092 Y  -0.0011 Z
    Strength   :     0.0013700277
    D(    1) --> V(  114) amplitude =  0.9363
    D(    1) --> V(  115) amplitude = -0.2578

 Excited state 116: excitation energy (eV) =     584.6777
 Total energy for state 116:                  -207.93201885 au
    Multiplicity: Singlet
    Trans. Mom.: -0.0030 X   0.0066 Y  -0.0065 Z
    Strength   :     0.0013650041
    D(    1) --> V(  116) amplitude =  0.8218
    D(    1) --> V(  117) amplitude = -0.4528

 Excited state 117: excitation energy (eV) =     585.0380
 Total energy for state 117:                  -207.91877548 au
    Multiplicity: Singlet
    Trans. Mom.:  0.0082 X  -0.0011 Y   0.0096 Z
    Strength   :     0.0023217756
    D(    1) --> V(  115) amplitude =  0.4340
    D(    1) --> V(  116) amplitude =  0.5016
    D(    1) --> V(  117) amplitude =  0.6911
    D(    1) --> V(  118) amplitude =  0.2417

 Excited state 118: excitation energy (eV) =     585.4595
 Total energy for state 118:                  -207.90328881 au
    Multiplicity: Singlet
    Trans. Mom.:  0.0025 X   0.0188 Y   0.0012 Z
    Strength   :     0.0051811731
    D(    1) --> V(  118) amplitude =  0.6104
    D(    1) --> V(  119) amplitude =  0.7299

 Excited state 119: excitation energy (eV) =     585.8068
 Total energy for state 119:                  -207.89052479 au
    Multiplicity: Singlet
    Trans. Mom.:  0.0024 X  -0.0036 Y   0.0004 Z
    Strength   :     0.0002738430
    D(    1) --> V(  116) amplitude = -0.2311
    D(    1) --> V(  118) amplitude =  0.7142
    D(    1) --> V(  119) amplitude = -0.6107

 Excited state 120: excitation energy (eV) =     587.6398
 Total energy for state 120:                  -207.82316386 au
    Multiplicity: Singlet
    Trans. Mom.: -0.0070 X   0.0106 Y  -0.0043 Z
    Strength   :     0.0025901965
    D(    1) --> V(  120) amplitude =  0.9686

 Excited state 121: excitation energy (eV) =     587.9311
 Total energy for state 121:                  -207.81245656 au
    Multiplicity: Singlet
    Trans. Mom.:  0.0025 X   0.0122 Y  -0.0067 Z
    Strength   :     0.0028933551
    D(    1) --> V(  121) amplitude =  0.9673

 Excited state 122: excitation energy (eV) =     588.7811
 Total energy for state 122:                  -207.78122135 au
    Multiplicity: Singlet
    Trans. Mom.: -0.0023 X   0.0036 Y   0.0034 Z
    Strength   :     0.0004242547
    D(    1) --> V(  122) amplitude =  0.8617
    D(    1) --> V(  123) amplitude = -0.4453

 Excited state 123: excitation energy (eV) =     589.4429
 Total energy for state 123:                  -207.75689906 au
    Multiplicity: Singlet
    Trans. Mom.:  0.0050 X   0.0010 Y   0.0006 Z
    Strength   :     0.0003743411
    D(    1) --> V(  122) amplitude =  0.4660
    D(    1) --> V(  123) amplitude =  0.8252

 Excited state 124: excitation energy (eV) =     590.6105
 Total energy for state 124:                  -207.71399099 au
    Multiplicity: Singlet
    Trans. Mom.:  0.0015 X  -0.0044 Y  -0.0028 Z
    Strength   :     0.0004261343
    D(    1) --> V(  124) amplitude =  0.9027
    D(    1) --> V(  125) amplitude = -0.2427

 Excited state 125: excitation energy (eV) =     591.4613
 Total energy for state 125:                  -207.68272676 au
    Multiplicity: Singlet
    Trans. Mom.: -0.0034 X   0.0093 Y   0.0017 Z
    Strength   :     0.0014616607
    D(    1) --> V(  124) amplitude =  0.3050
    D(    1) --> V(  125) amplitude =  0.5636
    D(    1) --> V(  127) amplitude = -0.5200
    D(    1) --> V(  128) amplitude = -0.4656
    D(    1) --> V(  130) amplitude = -0.2182

 Excited state 126: excitation energy (eV) =     591.9217
 Total energy for state 126:                  -207.66580628 au
    Multiplicity: Singlet
    Trans. Mom.: -0.0015 X  -0.0099 Y   0.0019 Z
    Strength   :     0.0015050869
    D(    1) --> V(  123) amplitude =  0.2833
    D(    1) --> V(  125) amplitude =  0.5321
    D(    1) --> V(  126) amplitude = -0.3461
    D(    1) --> V(  127) amplitude =  0.6768

 Excited state 127: excitation energy (eV) =     592.3049
 Total energy for state 127:                  -207.65172421 au
    Multiplicity: Singlet
    Trans. Mom.:  0.0026 X  -0.0008 Y  -0.0006 Z
    Strength   :     0.0001095349
    D(    1) --> V(  125) amplitude =  0.4163
    D(    1) --> V(  126) amplitude =  0.8258
    D(    1) --> V(  128) amplitude =  0.2738

 Excited state 128: excitation energy (eV) =     592.5006
 Total energy for state 128:                  -207.64453247 au
    Multiplicity: Singlet
    Trans. Mom.:  0.0040 X   0.0010 Y  -0.0022 Z
    Strength   :     0.0003131363
    D(    1) --> V(  125) amplitude =  0.3575
    D(    1) --> V(  126) amplitude = -0.4026
    D(    1) --> V(  127) amplitude = -0.3596
    D(    1) --> V(  128) amplitude =  0.6509
    D(    1) --> V(  129) amplitude =  0.3322

 Excited state 129: excitation energy (eV) =     593.2182
 Total energy for state 129:                  -207.61816209 au
    Multiplicity: Singlet
    Trans. Mom.: -0.0046 X   0.0104 Y  -0.0008 Z
    Strength   :     0.0018788593
    D(    1) --> V(  128) amplitude = -0.4024
    D(    1) --> V(  129) amplitude =  0.4345
    D(    1) --> V(  130) amplitude =  0.7352

 Excited state 130: excitation energy (eV) =     593.7320
 Total energy for state 130:                  -207.59927976 au
    Multiplicity: Singlet
    Trans. Mom.:  0.0030 X  -0.0001 Y  -0.0027 Z
    Strength   :     0.0002434627
    D(    1) --> V(  127) amplitude =  0.2267
    D(    1) --> V(  128) amplitude = -0.2370
    D(    1) --> V(  129) amplitude =  0.7147
    D(    1) --> V(  130) amplitude = -0.4836
    D(    1) --> V(  132) amplitude = -0.2590
    D(    1) --> V(  133) amplitude = -0.2474

 Excited state 131: excitation energy (eV) =     594.1662
 Total energy for state 131:                  -207.58332152 au
    Multiplicity: Singlet
    Trans. Mom.: -0.0064 X   0.0039 Y   0.0015 Z
    Strength   :     0.0008527539
    D(    1) --> V(  129) amplitude =  0.2882
    D(    1) --> V(  130) amplitude = -0.2392
    D(    1) --> V(  132) amplitude =  0.4244
    D(    1) --> V(  133) amplitude =  0.7852

 Excited state 132: excitation energy (eV) =     594.7694
 Total energy for state 132:                  -207.56115364 au
    Multiplicity: Singlet
    Trans. Mom.: -0.0033 X   0.0051 Y  -0.0019 Z
    Strength   :     0.0005936467
    D(    1) --> V(  131) amplitude =  0.9786

 Excited state 133: excitation energy (eV) =     595.1302
 Total energy for state 133:                  -207.54789500 au
    Multiplicity: Singlet
    Trans. Mom.: -0.0018 X   0.0006 Y   0.0012 Z
    Strength   :     0.0000739542
    D(    1) --> V(  130) amplitude = -0.2129
    D(    1) --> V(  132) amplitude =  0.8292
    D(    1) --> V(  133) amplitude = -0.4955

 Excited state 134: excitation energy (eV) =     596.2608
 Total energy for state 134:                  -207.50634794 au
    Multiplicity: Singlet
    Trans. Mom.: -0.0079 X  -0.0027 Y  -0.0098 Z
    Strength   :     0.0024399949
    D(    1) --> V(  134) amplitude =  0.9518

 Excited state 135: excitation energy (eV) =     597.8709
 Total energy for state 135:                  -207.44717629 au
    Multiplicity: Singlet
    Trans. Mom.: -0.0024 X   0.0026 Y  -0.0006 Z
    Strength   :     0.0001840604
    D(    1) --> V(  135) amplitude =  0.9115
    D(    1) --> V(  136) amplitude =  0.3171

 Excited state 136: excitation energy (eV) =     598.5769
 Total energy for state 136:                  -207.42123005 au
    Multiplicity: Singlet
    Trans. Mom.: -0.0001 X   0.0012 Y  -0.0014 Z
    Strength   :     0.0000490447
    D(    1) --> V(  135) amplitude = -0.3724
    D(    1) --> V(  136) amplitude =  0.8790

 Excited state 137: excitation energy (eV) =     599.1961
 Total energy for state 137:                  -207.39847733 au
    Multiplicity: Singlet
    Trans. Mom.: -0.0014 X   0.0029 Y   0.0010 Z
    Strength   :     0.0001675122
    D(    1) --> V(  136) amplitude =  0.2517
    D(    1) --> V(  137) amplitude =  0.9599

 Excited state 138: excitation energy (eV) =     599.5812
 Total energy for state 138:                  -207.38432350 au
    Multiplicity: Singlet
    Trans. Mom.:  0.0054 X   0.0102 Y   0.0121 Z
    Strength   :     0.0040809054
    D(    1) --> V(  139) amplitude =  0.8628
    D(    1) --> V(  140) amplitude = -0.3233
    D(    1) --> V(  141) amplitude =  0.2328

 Excited state 139: excitation energy (eV) =     599.9226
 Total energy for state 139:                  -207.37177765 au
    Multiplicity: Singlet
    Trans. Mom.: -0.0027 X   0.0001 Y  -0.0041 Z
    Strength   :     0.0003538028
    D(    1) --> V(  138) amplitude =  0.9378
    D(    1) --> V(  140) amplitude =  0.2145

 Excited state 140: excitation energy (eV) =     600.9556
 Total energy for state 140:                  -207.33381494 au
    Multiplicity: Singlet
    Trans. Mom.:  0.0072 X   0.0010 Y   0.0072 Z
    Strength   :     0.0015398283
    D(    1) --> V(  139) amplitude = -0.3338
    D(    1) --> V(  140) amplitude = -0.5279
    D(    1) --> V(  141) amplitude =  0.6272
    D(    1) --> V(  142) amplitude =  0.4201

 Excited state 141: excitation energy (eV) =     601.4603
 Total energy for state 141:                  -207.31526933 au
    Multiplicity: Singlet
    Trans. Mom.:  0.0051 X   0.0022 Y  -0.0048 Z
    Strength   :     0.0007958956
    D(    1) --> V(  140) amplitude =  0.7360
    D(    1) --> V(  141) amplitude =  0.5855
    D(    1) --> V(  142) amplitude =  0.2178

 Excited state 142: excitation energy (eV) =     601.9769
 Total energy for state 142:                  -207.29628581 au
    Multiplicity: Singlet
    Trans. Mom.: -0.0020 X   0.0130 Y  -0.0001 Z
    Strength   :     0.0025448408
    D(    1) --> V(  139) amplitude =  0.2175
    D(    1) --> V(  141) amplitude = -0.4373
    D(    1) --> V(  142) amplitude =  0.8478

 Excited state 143: excitation energy (eV) =     604.2681
 Total energy for state 143:                  -207.21208255 au
    Multiplicity: Singlet
    Trans. Mom.:  0.0029 X   0.0100 Y  -0.0084 Z
    Strength   :     0.0026496705
    D(    1) --> V(  143) amplitude =  0.8899
    D(    1) --> V(  144) amplitude =  0.3841

 Excited state 144: excitation energy (eV) =     604.7115
 Total energy for state 144:                  -207.19578821 au
    Multiplicity: Singlet
    Trans. Mom.: -0.0026 X  -0.0001 Y   0.0006 Z
    Strength   :     0.0001073535
    D(    1) --> V(  143) amplitude = -0.3283
    D(    1) --> V(  144) amplitude =  0.8710
    D(    1) --> V(  145) amplitude = -0.2549
    D(    1) --> V(  146) amplitude =  0.2131

 Excited state 145: excitation energy (eV) =     605.6931
 Total energy for state 145:                  -207.15971751 au
    Multiplicity: Singlet
    Trans. Mom.:  0.0085 X  -0.0043 Y  -0.0095 Z
    Strength   :     0.0026683037
    D(    1) --> V(  143) amplitude = -0.2613
    D(    1) --> V(  144) amplitude =  0.2606
    D(    1) --> V(  145) amplitude =  0.6796
    D(    1) --> V(  146) amplitude = -0.5989

 Excited state 146: excitation energy (eV) =     607.1283
 Total energy for state 146:                  -207.10697430 au
    Multiplicity: Singlet
    Trans. Mom.: -0.0011 X  -0.0014 Y   0.0006 Z
    Strength   :     0.0000534264
    D(    1) --> V(  145) amplitude =  0.6781
    D(    1) --> V(  146) amplitude =  0.7153

 Excited state 147: excitation energy (eV) =     608.5096
 Total energy for state 147:                  -207.05621230 au
    Multiplicity: Singlet
    Trans. Mom.:  0.0032 X  -0.0020 Y   0.0052 Z
    Strength   :     0.0006194185
    D(    1) --> V(  147) amplitude =  0.9490

 Excited state 148: excitation energy (eV) =     609.4366
 Total energy for state 148:                  -207.02214378 au
    Multiplicity: Singlet
    Trans. Mom.:  0.0020 X   0.0013 Y  -0.0017 Z
    Strength   :     0.0001278467
    D(    1) --> V(  148) amplitude =  0.9282
    D(    1) --> V(  150) amplitude = -0.2226

 Excited state 149: excitation energy (eV) =     609.7772
 Total energy for state 149:                  -207.00962810 au
    Multiplicity: Singlet
    Trans. Mom.:  0.0071 X  -0.0129 Y   0.0029 Z
    Strength   :     0.0033662845
    D(    1) --> V(  149) amplitude = -0.6063
    D(    1) --> V(  150) amplitude =  0.7058
    D(    1) --> V(  151) amplitude =  0.2250

 Excited state 150: excitation energy (eV) =     610.5556
 Total energy for state 150:                  -206.98102196 au
    Multiplicity: Singlet
    Trans. Mom.:  0.0048 X  -0.0102 Y   0.0027 Z
    Strength   :     0.0019981220
    D(    1) --> V(  148) amplitude =  0.2553
    D(    1) --> V(  149) amplitude =  0.7673
    D(    1) --> V(  150) amplitude =  0.5501

 ---------------------------------------------------
  SETman timing summary (seconds)
  CPU time             73311.03s
  System time              0.00s
  Wall time            36730.01s
================================================================================
                             Excited State Analysis
================================================================================

  Ground State (Reference) :
  -------------------------
    NOs
      Occupation of frontier NOs:
         0.0000   0.0000   2.0000   2.0000
      Number of electrons: 30.000000
      Number of unpaired electrons: n_u =  0.00000, n_u,nl =  0.00000
    
    Mulliken Population Analysis (State DM)
    Atom      Charge (e)
    --------------------
     1 O       -0.593636
     2 O       -0.600206
     3 H        0.315312
     4 H        0.280041
     5 H        0.302853
     6 H        0.300974
     7 O       -0.600248
     8 H        0.302679
     9 H        0.292230
    --------------------
    Sum:        0.000000
    
    Multipole moment analysis of the density matrix
      Molecular charge:                      0.000000
      Number of electrons:                   30.000000
        Center of electronic charge [Ang]: [ -0.004663,   0.000061,  -0.003051]
      Total nuclear charge:                  30.000000
        Center of nuclear charge [Ang]:    [ -0.020580,   0.004290,  -0.011963]
      Dipole moment [D]:                     2.698305
        Cartesian components [D]:          [ -2.293551,   0.609429,  -1.284161]
      RMS size of the density [Ang]:         2.661017
        Cartesian components [Ang]:        [  1.091527,   2.314871,   0.728665]
    

  ----------------------------------------------------------------------------
                  Analysis of Unrelaxed Density Matrices
  ----------------------------------------------------------------------------

  Singlet 1 :
  -------------------------
    NOs
      Occupation of frontier NOs:
         0.0000   1.0000   1.0000   2.0000
      Number of electrons: 30.000000
      Number of unpaired electrons: n_u =  2.00000, n_u,nl =  2.00000
      NO participation ratio (PR_NO):  2.000000
    
    NDOs
      Leading detachment eigenvalues:
        -1.0000  -0.0000
      Leading attachment eigenvalues:
         1.0000   0.0000
      Number of detached / attached electrons: p_D =  1.0000, p_A =  1.0000
      Number of involved orbitals: PR_D =  1.000000, PR_A =  1.000000
    
    Mulliken Population Analysis (State/Difference DM)
    Atom      Charge (e)              h+              e-           Del q
    --------------------------------------------------------------------
     1 O        0.510762        0.993817        0.110580        1.104397
     2 O       -0.604491        0.000000       -0.004285       -0.004284
     3 H        0.299538       -0.000003       -0.015772       -0.015775
     4 H        0.267852        0.000000       -0.012189       -0.012189
     5 H       -0.189336        0.002713       -0.494902       -0.492189
     6 H       -0.088651        0.003473       -0.393099       -0.389626
     7 O       -0.590871       -0.000000        0.009377        0.009377
     8 H        0.163501       -0.000000       -0.139178       -0.139178
     9 H        0.231696        0.000000       -0.060534       -0.060534
    --------------------------------------------------------------------
    Sum:       -0.000000        1.000000       -1.000000       -0.000000
    
    Multipole moment analysis of the density matrix
      Molecular charge:                      -0.000000
      Number of electrons:                   30.000000
        Center of electronic charge [Ang]: [ -0.001142,   0.025451,  -0.018694]
      Total nuclear charge:                  30.000000
        Center of nuclear charge [Ang]:    [ -0.020580,   0.004290,  -0.011963]
      Dipole moment [D]:                     4.252540
        Cartesian components [D]:          [ -2.800928,  -3.049288,   0.969917]
      RMS size of the density [Ang]:         2.696251
        Cartesian components [Ang]:        [  1.115150,   2.334649,   0.758697]
    
    Exciton analysis of the difference density matrix
      <r_h> [Ang]:                  [ -1.031268,   0.406989,   0.247986]
      <r_e> [Ang]:                  [ -0.925635,   1.168713,  -0.221301]
      |<r_e - r_h>| [Ang]:            0.900895
      Hole size [Ang]:                0.122770
        Cartesian components [Ang]: [  0.070877,   0.070885,   0.070881]
      Electron size [Ang]:            2.173882
        Cartesian components [Ang]: [  1.332277,   1.258172,   1.169532]

  Singlet 2 :
  -------------------------
    NOs
      Occupation of frontier NOs:
         0.0000   1.0000   1.0000   2.0000
      Number of electrons: 30.000000
      Number of unpaired electrons: n_u =  2.00000, n_u,nl =  2.00000
      NO participation ratio (PR_NO):  2.000000
    
    NDOs
      Leading detachment eigenvalues:
        -1.0000  -0.0000
      Leading attachment eigenvalues:
         1.0000   0.0000
      Number of detached / attached electrons: p_D =  1.0000, p_A =  1.0000
      Number of involved orbitals: PR_D =  1.000000, PR_A =  1.000000
    
    Mulliken Population Analysis (State/Difference DM)
    Atom      Charge (e)              h+              e-           Del q
    --------------------------------------------------------------------
     1 O        0.527264        0.993817        0.127083        1.120900
     2 O       -0.606858        0.000000       -0.006652       -0.006652
     3 H        0.315946       -0.000003        0.000637        0.000634
     4 H        0.234719        0.000000       -0.045322       -0.045322
     5 H       -0.229695        0.002713       -0.535262       -0.532548
     6 H       -0.015601        0.003473       -0.320048       -0.316575
     7 O       -0.526174       -0.000000        0.074074        0.074074
     8 H        0.275997       -0.000000       -0.026682       -0.026682
     9 H        0.024402        0.000000       -0.267829       -0.267829
    --------------------------------------------------------------------
    Sum:        0.000000        1.000000       -1.000000        0.000000
    
    Multipole moment analysis of the density matrix
      Molecular charge:                      0.000000
      Number of electrons:                   30.000000
        Center of electronic charge [Ang]: [  0.004856,   0.018486,  -0.016312]
      Total nuclear charge:                  30.000000
        Center of nuclear charge [Ang]:    [ -0.020580,   0.004290,  -0.011963]
      Dipole moment [D]:                     4.243974
        Cartesian components [D]:          [ -3.665241,  -2.045656,   0.626586]
      RMS size of the density [Ang]:         2.705410
        Cartesian components [Ang]:        [  1.128444,   2.337256,   0.763604]
    
    Exciton analysis of the difference density matrix
      <r_h> [Ang]:                  [ -1.031268,   0.406989,   0.247986]
      <r_e> [Ang]:                  [ -0.745690,   0.959762,  -0.149821]
      |<r_e - r_h>| [Ang]:            0.738487
      Hole size [Ang]:                0.122770
        Cartesian components [Ang]: [  0.070877,   0.070885,   0.070881]
      Electron size [Ang]:            2.640263
        Cartesian components [Ang]: [  1.723700,   1.543994,   1.271193]

  Singlet 3 :
  -------------------------
    NOs
      Occupation of frontier NOs:
         0.0000   1.0000   1.0000   2.0000
      Number of electrons: 30.000000
      Number of unpaired electrons: n_u =  2.00000, n_u,nl =  2.00000
      NO participation ratio (PR_NO):  2.000000
    
    NDOs
      Leading detachment eigenvalues:
        -1.0000  -0.0000
      Leading attachment eigenvalues:
         1.0000   0.0000
      Number of detached / attached electrons: p_D =  1.0000, p_A =  1.0000
      Number of involved orbitals: PR_D =  1.000000, PR_A =  1.000000
    
    Mulliken Population Analysis (State/Difference DM)
    Atom      Charge (e)              h+              e-           Del q
    --------------------------------------------------------------------
     1 O        0.331194        0.993817       -0.068987        0.924830
     2 O       -0.414501        0.000000        0.185705        0.185705
     3 H        0.055361       -0.000003       -0.259948       -0.259951
     4 H       -0.477953        0.000000       -0.757994       -0.757994
     5 H        0.263302        0.002713       -0.042264       -0.039551
     6 H        0.301741        0.003473       -0.002706        0.000767
     7 O       -0.583751       -0.000000        0.016497        0.016497
     8 H        0.253396       -0.000000       -0.049282       -0.049282
     9 H        0.271210        0.000000       -0.021021       -0.021021
    --------------------------------------------------------------------
    Sum:        0.000000        1.000000       -1.000000        0.000000
    
    Multipole moment analysis of the density matrix
      Molecular charge:                      0.000000
      Number of electrons:                   30.000000
        Center of electronic charge [Ang]: [  0.009532,  -0.099127,  -0.017820]
      Total nuclear charge:                  30.000000
        Center of nuclear charge [Ang]:    [ -0.020580,   0.004290,  -0.011963]
      Dipole moment [D]:                     15.543740
        Cartesian components [D]:          [ -4.339047,  14.901961,   0.843853]
      RMS size of the density [Ang]:         2.737235
        Cartesian components [Ang]:        [  1.101833,   2.388426,   0.757522]
    
    Exciton analysis of the difference density matrix
      <r_h> [Ang]:                  [ -1.031268,   0.406989,   0.247986]
      <r_e> [Ang]:                  [ -0.605407,  -2.568636,  -0.195055]
      |<r_e - r_h>| [Ang]:            3.038418
      Hole size [Ang]:                0.122770
        Cartesian components [Ang]: [  0.070877,   0.070885,   0.070881]
      Electron size [Ang]:            2.636812
        Cartesian components [Ang]: [  1.175684,   2.060633,   1.150797]

  Singlet 4 :
  -------------------------
    NOs
      Occupation of frontier NOs:
         0.0000   1.0000   1.0000   2.0000
      Number of electrons: 30.000000
      Number of unpaired electrons: n_u =  2.00000, n_u,nl =  2.00000
      NO participation ratio (PR_NO):  2.000000
    
    NDOs
      Leading detachment eigenvalues:
        -1.0000  -0.0000
      Leading attachment eigenvalues:
         1.0000   0.0000
      Number of detached / attached electrons: p_D =  1.0000, p_A =  1.0000
      Number of involved orbitals: PR_D =  1.000000, PR_A =  1.000000
    
    Mulliken Population Analysis (State/Difference DM)
    Atom      Charge (e)              h+              e-           Del q
    --------------------------------------------------------------------
     1 O        0.428669        0.993817        0.028488        1.022305
     2 O       -0.604006        0.000000       -0.003800       -0.003800
     3 H        0.310197       -0.000003       -0.005113       -0.005115
     4 H        0.278553        0.000000       -0.001488       -0.001488
     5 H        0.348314        0.002713        0.042748        0.045461
     6 H       -0.147273        0.003473       -0.451720       -0.448247
     7 O       -0.321538       -0.000000        0.278710        0.278710
     8 H       -0.241513       -0.000000       -0.544192       -0.544192
     9 H       -0.051403        0.000000       -0.343633       -0.343633
    --------------------------------------------------------------------
    Sum:        0.000000        1.000000       -1.000000        0.000000
    
    Multipole moment analysis of the density matrix
      Molecular charge:                      0.000000
      Number of electrons:                   30.000000
        Center of electronic charge [Ang]: [  0.035089,   0.043181,  -0.014034]
      Total nuclear charge:                  30.000000
        Center of nuclear charge [Ang]:    [ -0.020580,   0.004290,  -0.011963]
      Dipole moment [D]:                     9.789904
        Cartesian components [D]:          [ -8.021695,  -5.604068,   0.298411]
      RMS size of the density [Ang]:         2.711810
        Cartesian components [Ang]:        [  1.117242,   2.344422,   0.780621]
    
    Exciton analysis of the difference density matrix
      <r_h> [Ang]:                  [ -1.031268,   0.406989,   0.247986]
      <r_e> [Ang]:                  [  0.161299,   1.700604,  -0.081497]
      |<r_e - r_h>| [Ang]:            1.790032
      Hole size [Ang]:                0.122770
        Cartesian components [Ang]: [  0.070877,   0.070885,   0.070881]
      Electron size [Ang]:            2.581856
        Cartesian components [Ang]: [  1.668154,   1.210472,   1.554992]

  Singlet 5 :
  -------------------------
    NOs
      Occupation of frontier NOs:
         0.0000   1.0000   1.0000   2.0000
      Number of electrons: 30.000000
      Number of unpaired electrons: n_u =  2.00000, n_u,nl =  2.00000
      NO participation ratio (PR_NO):  2.000000
    
    NDOs
      Leading detachment eigenvalues:
        -1.0000  -0.0000
      Leading attachment eigenvalues:
         1.0000   0.0000
      Number of detached / attached electrons: p_D =  1.0000, p_A =  1.0000
      Number of involved orbitals: PR_D =  1.000000, PR_A =  1.000000
    
    Mulliken Population Analysis (State/Difference DM)
    Atom      Charge (e)              h+              e-           Del q
    --------------------------------------------------------------------
     1 O        0.447614        0.993817        0.047433        1.041250
     2 O       -0.560728        0.000000        0.039478        0.039478
     3 H        0.273584       -0.000003       -0.041726       -0.041729
     4 H        0.116835        0.000000       -0.163206       -0.163206
     5 H        0.195579        0.002713       -0.109987       -0.107274
     6 H        0.246439        0.003473       -0.058008       -0.054535
     7 O       -0.389809       -0.000000        0.210440        0.210440
     8 H       -0.107876       -0.000000       -0.410555       -0.410555
     9 H       -0.221638        0.000000       -0.513869       -0.513869
    --------------------------------------------------------------------
    Sum:       -0.000000        1.000000       -1.000000       -0.000000
    
    Multipole moment analysis of the density matrix
      Molecular charge:                      -0.000000
      Number of electrons:                   30.000000
        Center of electronic charge [Ang]: [  0.045092,   0.015462,  -0.020295]
      Total nuclear charge:                  30.000000
        Center of nuclear charge [Ang]:    [ -0.020580,   0.004290,  -0.011963]
      Dipole moment [D]:                     9.673784
        Cartesian components [D]:          [ -9.463052,  -1.609829,   1.200499]
      RMS size of the density [Ang]:         2.719751
        Cartesian components [Ang]:        [  1.124900,   2.355518,   0.763663]
    
    Exciton analysis of the difference density matrix
      <r_h> [Ang]:                  [ -1.031268,   0.406989,   0.247986]
      <r_e> [Ang]:                  [  0.461382,   0.869025,  -0.269306]
      |<r_e - r_h>| [Ang]:            1.645926
      Hole size [Ang]:                0.122770
[...]
 133  O 2   f 1     -0.00002   0.00022
 134  O 2   f 2     -0.00000   0.00009
 135  O 2   f 3      0.00004   0.00028
 136  O 2   f 4     -0.00004   0.00004
 137  O 2   f 5     -0.00003   0.00002
 138  O 2   f 6     -0.00002   0.00009
 139  O 2   f 7     -0.00012  -0.00011
 140  O 2   f 1     -0.00017  -0.00088
 141  O 2   f 2      0.00006  -0.00082
 142  O 2   f 3     -0.00082  -0.00200
 143  O 2   f 4      0.00052   0.00003
 144  O 2   f 5      0.00014  -0.00022
 145  O 2   f 6      0.00055   0.00014
 146  O 2   f 7      0.00118   0.00078
 147  O 2   f 1      0.00407  -0.00527
 148  O 2   f 2      0.00100  -0.00761
 149  O 2   f 3     -0.00039  -0.01091
 150  O 2   f 4     -0.00219  -0.00765
 151  O 2   f 5      0.00052  -0.00142
 152  O 2   f 6     -0.00394  -0.00606
 153  O 2   f 7      0.00180  -0.00162
 154  O 2   g 1      0.00003  -0.00002
 155  O 2   g 2      0.00007  -0.00011
 156  O 2   g 3      0.00004  -0.00007
 157  O 2   g 4      0.00011  -0.00004
 158  O 2   g 5     -0.00004  -0.00019
 159  O 2   g 6     -0.00001  -0.00006
 160  O 2   g 7     -0.00005  -0.00019
 161  O 2   g 8     -0.00006  -0.00013
 162  O 2   g 9      0.00004  -0.00004
 163  O 2   g 1      0.00036  -0.00015
 164  O 2   g 2     -0.00076   0.00024
 165  O 2   g 3      0.00001   0.00163
 166  O 2   g 4     -0.00077   0.00039
 167  O 2   g 5      0.00053   0.00172
 168  O 2   g 6     -0.00011   0.00088
 169  O 2   g 7      0.00069   0.00167
 170  O 2   g 8      0.00003   0.00118
 171  O 2   g 9     -0.00056   0.00050
 172  O 2   h 1     -0.00009   0.00013
 173  O 2   h 2     -0.00003   0.00024
 174  O 2   h 3      0.00001   0.00009
 175  O 2   h 4      0.00003  -0.00006
 176  O 2   h 5      0.00008   0.00017
 177  O 2   h 6     -0.00005   0.00007
 178  O 2   h 7     -0.00002  -0.00012
 179  O 2   h 8     -0.00004   0.00010
 180  O 2   h 9     -0.00011  -0.00010
 181  O 2   h10      0.00011   0.00010
 182  O 2   h11     -0.00003   0.00007
 183  H 1   s       -0.00069   0.00017
 184  H 1   s        0.00592  -0.00009
 185  H 1   s       -0.01325  -0.00255
 186  H 1   s       -0.12113  -0.28994
 187  H 1   s       -0.11277   0.88915
 188  H 1   px       0.00005  -0.00032
 189  H 1   py      -0.00032   0.00146
 190  H 1   pz       0.00013  -0.00064
 191  H 1   px       0.00014   0.00101
 192  H 1   py      -0.00153  -0.00549
 193  H 1   pz       0.00059   0.00226
 194  H 1   px       0.00723  -0.01690
 195  H 1   py       0.00754   0.03506
 196  H 1   pz      -0.00663  -0.03850
 197  H 1   px       0.00597  -0.02688
 198  H 1   py       0.04788   0.07502
 199  H 1   pz      -0.01806  -0.03045
 200  H 1   d 1     -0.00008  -0.00015
 201  H 1   d 2     -0.00036  -0.00054
 202  H 1   d 3     -0.00009   0.00023
 203  H 1   d 4      0.00003   0.00020
 204  H 1   d 5     -0.00032   0.00050
 205  H 1   d 1     -0.00040   0.00215
 206  H 1   d 2      0.00250   0.00633
 207  H 1   d 3      0.00023  -0.00223
 208  H 1   d 4     -0.00008  -0.00222
 209  H 1   d 5      0.00214  -0.00260
 210  H 1   d 1     -0.00510   0.01142
 211  H 1   d 2      0.00902   0.02012
 212  H 1   d 3      0.00297   0.00125
 213  H 1   d 4      0.00042  -0.00809
 214  H 1   d 5      0.01450   0.01834
 215  H 1   f 1      0.00004   0.00027
 216  H 1   f 2     -0.00000   0.00008
 217  H 1   f 3      0.00010   0.00022
 218  H 1   f 4      0.00004   0.00031
 219  H 1   f 5      0.00001   0.00003
 220  H 1   f 6      0.00003   0.00032
 221  H 1   f 7     -0.00009   0.00004
 222  H 1   f 1     -0.00347  -0.00079
 223  H 1   f 2      0.00023   0.00301
 224  H 1   f 3     -0.00025   0.00257
 225  H 1   f 4      0.00149   0.00214
 226  H 1   f 5     -0.00065  -0.00058
 227  H 1   f 6      0.00277   0.00293
 228  H 1   f 7     -0.00033   0.00174
 229  H 1   g 1      0.00003  -0.00002
 230  H 1   g 2     -0.00022  -0.00014
 231  H 1   g 3      0.00007   0.00006
 232  H 1   g 4     -0.00014  -0.00018
 233  H 1   g 5      0.00007   0.00027
 234  H 1   g 6     -0.00001   0.00009
 235  H 1   g 7      0.00003   0.00030
 236  H 1   g 8      0.00002   0.00021
 237  H 1   g 9     -0.00027   0.00008
 238  H 2   s        0.00002  -0.00259
 239  H 2   s        0.00507   0.00579
 240  H 2   s       -0.03582  -0.09626
 241  H 2   s       -0.23354  -0.12390
 242  H 2   s        0.25412  -0.77169
 243  H 2   px      -0.00013   0.00040
 244  H 2   py      -0.00047   0.00078
 245  H 2   pz      -0.00064   0.00085
 246  H 2   px       0.00046  -0.00082
 247  H 2   py       0.00241   0.00069
 248  H 2   pz       0.00289   0.00012
 249  H 2   px      -0.00666   0.00527
 250  H 2   py      -0.02147  -0.01813
 251  H 2   pz      -0.02552   0.00087
 252  H 2   px      -0.02363  -0.02404
 253  H 2   py      -0.05616  -0.02329
 254  H 2   pz      -0.05588  -0.03542
 255  H 2   d 1     -0.00001  -0.00000
 256  H 2   d 2      0.00013   0.00060
 257  H 2   d 3      0.00011  -0.00011
 258  H 2   d 4      0.00008   0.00005
 259  H 2   d 5     -0.00017  -0.00065
 260  H 2   d 1     -0.00015   0.00005
 261  H 2   d 2     -0.00137  -0.00377
 262  H 2   d 3     -0.00117   0.00160
 263  H 2   d 4     -0.00076   0.00015
 264  H 2   d 5      0.00098   0.00464
 265  H 2   d 1     -0.00638  -0.00596
 266  H 2   d 2     -0.01815  -0.01149
 267  H 2   d 3     -0.00538   0.00239
 268  H 2   d 4     -0.00620   0.00107
 269  H 2   d 5      0.00603   0.00411
 270  H 2   f 1     -0.00001   0.00030
 271  H 2   f 2      0.00001   0.00007
 272  H 2   f 3     -0.00006   0.00016
 273  H 2   f 4     -0.00006   0.00001
 274  H 2   f 5     -0.00001  -0.00011
 275  H 2   f 6     -0.00004   0.00009
 276  H 2   f 7     -0.00005  -0.00011
 277  H 2   f 1      0.00053   0.00066
 278  H 2   f 2     -0.00160  -0.00092
 279  H 2   f 3     -0.00241  -0.00163
 280  H 2   f 4      0.00033   0.00206
 281  H 2   f 5     -0.00116   0.00056
 282  H 2   f 6      0.00209   0.00322
 283  H 2   f 7      0.00094   0.00165
 284  H 2   g 1      0.00004   0.00011
 285  H 2   g 2      0.00007   0.00022
 286  H 2   g 3     -0.00014  -0.00004
 287  H 2   g 4     -0.00011   0.00009
 288  H 2   g 5      0.00009   0.00011
 289  H 2   g 6     -0.00007  -0.00007
 290  H 2   g 7      0.00015   0.00015
 291  H 2   g 8      0.00010   0.00009
 292  H 2   g 9     -0.00001  -0.00006
 293  H 3   s       -0.00262   0.00766
 294  H 3   s       -0.03597  -0.00355
 295  H 3   s        0.14131   0.35018
 296  H 3   s        0.65445   0.51837
 297  H 3   s        0.68372   1.06116
 298  H 3   px      -0.00020  -0.00079
 299  H 3   py       0.00002   0.00068
 300  H 3   pz       0.00022  -0.00124
 301  H 3   px      -0.00462  -0.00308
 302  H 3   py       0.00189  -0.00116
 303  H 3   pz      -0.00598  -0.00031
 304  H 3   px       0.06876   0.06473
 305  H 3   py       0.01867  -0.01201
 306  H 3   pz       0.06173   0.06972
 307  H 3   px       0.24077   0.11199
 308  H 3   py       0.03079  -0.14181
 309  H 3   pz       0.17953   0.17129
 310  H 3   d 1      0.00013   0.00032
 311  H 3   d 2     -0.00024   0.00019
 312  H 3   d 3     -0.00030  -0.00056
 313  H 3   d 4     -0.00153  -0.00074
 314  H 3   d 5     -0.00058  -0.00061
 315  H 3   d 1      0.00124  -0.00213
 316  H 3   d 2      0.00274  -0.00138
 317  H 3   d 3      0.00344   0.00606
 318  H 3   d 4      0.01200   0.01191
 319  H 3   d 5      0.00562   0.00659
 320  H 3   d 1      0.00797  -0.01752
 321  H 3   d 2      0.01282  -0.02232
 322  H 3   d 3      0.01223   0.01205
 323  H 3   d 4      0.06673   0.03570
 324  H 3   d 5      0.04912   0.01445
 325  H 3   f 1     -0.00003   0.00013
 326  H 3   f 2      0.00003  -0.00011
 327  H 3   f 3     -0.00005   0.00020
 328  H 3   f 4      0.00007  -0.00022
 329  H 3   f 5      0.00022   0.00090
 330  H 3   f 6     -0.00016   0.00070
 331  H 3   f 7     -0.00010   0.00014
 332  H 3   f 1      0.00054  -0.00298
 333  H 3   f 2      0.00151  -0.00493
 334  H 3   f 3      0.00263  -0.00408
 335  H 3   f 4     -0.00418  -0.00031
 336  H 3   f 5      0.01069   0.00502
 337  H 3   f 6      0.01520   0.00451
 338  H 3   f 7      0.00720   0.00195
 339  H 3   g 1      0.00001  -0.00005
 340  H 3   g 2      0.00005  -0.00033
 341  H 3   g 3      0.00014  -0.00046
 342  H 3   g 4      0.00020  -0.00005
 343  H 3   g 5     -0.00057  -0.00032
 344  H 3   g 6      0.00016   0.00015
 345  H 3   g 7      0.00105   0.00045
 346  H 3   g 8      0.00085   0.00015
 347  H 3   g 9      0.00035   0.00006
 348  H 4   s       -0.00897  -0.00155
 349  H 4   s       -0.00680   0.01416
 350  H 4   s       -0.36136  -0.26421
 351  H 4   s       -0.08519  -0.53961
 352  H 4   s       -2.01918  -0.90384
 353  H 4   px      -0.00019  -0.00021
 354  H 4   py      -0.00324  -0.00147
 355  H 4   pz      -0.00183  -0.00028
 356  H 4   px      -0.00114  -0.00100
 357  H 4   py       0.00596  -0.00167
 358  H 4   pz       0.00277  -0.00175
 359  H 4   px       0.01421   0.04671
 360  H 4   py       0.03261   0.04165
 361  H 4   pz       0.03479   0.06558
 362  H 4   px      -0.06282   0.09582
 363  H 4   py       0.09201   0.12108
 364  H 4   pz       0.07723   0.16088
 365  H 4   d 1      0.00038   0.00046
 366  H 4   d 2      0.00058   0.00062
 367  H 4   d 3      0.00009  -0.00025
 368  H 4   d 4      0.00024   0.00119
 369  H 4   d 5     -0.00027  -0.00022
 370  H 4   d 1     -0.00478  -0.00726
 371  H 4   d 2     -0.01179  -0.00929
 372  H 4   d 3     -0.00020   0.00075
 373  H 4   d 4     -0.00365  -0.00861
 374  H 4   d 5      0.00621   0.00306
 375  H 4   d 1      0.01884  -0.02941
 376  H 4   d 2     -0.03014  -0.04756
 377  H 4   d 3     -0.01521  -0.02041
 378  H 4   d 4      0.00326  -0.01243
 379  H 4   d 5      0.00221  -0.00769
 380  H 4   f 1     -0.00031  -0.00024
 381  H 4   f 2      0.00105   0.00049
 382  H 4   f 3     -0.00012  -0.00009
 383  H 4   f 4     -0.00039  -0.00048
 384  H 4   f 5     -0.00005   0.00045
 385  H 4   f 6     -0.00068  -0.00032
 386  H 4   f 7     -0.00075  -0.00053
 387  H 4   f 1     -0.00095   0.00514
 388  H 4   f 2     -0.00157   0.00749
 389  H 4   f 3      0.00694   0.00793
 390  H 4   f 4     -0.00325  -0.00376
 391  H 4   f 5      0.00157  -0.00093
 392  H 4   f 6     -0.00540  -0.00516
 393  H 4   f 7      0.00288  -0.00438
 394  H 4   g 1     -0.00015   0.00024
 395  H 4   g 2      0.00036   0.00003
 396  H 4   g 3     -0.00022  -0.00029
 397  H 4   g 4      0.00012   0.00013
 398  H 4   g 5      0.00041   0.00052
 399  H 4   g 6     -0.00000   0.00024
 400  H 4   g 7      0.00046   0.00063
 401  H 4   g 8      0.00022   0.00070
 402  H 4   g 9     -0.00014   0.00054
 403  O 3   s        0.00150   0.00069
 404  O 3   s       -0.06184   0.01205
 405  O 3   s       -0.00519   0.00238
 406  O 3   s        0.00275   0.01354
 407  O 3   s       -0.33065  -0.00674
 408  O 3   s       -1.65182   0.15613
 409  O 3   px       0.01082  -0.04438
 410  O 3   py       0.01647   0.00915
 411  O 3   pz       0.01318  -0.02002
 412  O 3   px       0.01193  -0.07417
 413  O 3   py       0.01968   0.01453
 414  O 3   pz       0.02925  -0.03114
 415  O 3   px       0.03730  -0.10418
 416  O 3   py       0.06096   0.03339
 417  O 3   pz       0.01258  -0.05883
 418  O 3   px       0.24879  -0.04109
 419  O 3   py       0.43290   0.07793
 420  O 3   pz      -0.19890   0.01888
 421  O 3   px       0.29151  -0.48395
 422  O 3   py       0.12304  -0.03286
 423  O 3   pz      -0.00070  -0.28614
 424  O 3   d 1     -0.00036  -0.00042
 425  O 3   d 2      0.00061  -0.00012
 426  O 3   d 3      0.00028   0.00035
 427  O 3   d 4     -0.00029  -0.00009
 428  O 3   d 5     -0.00002   0.00003
 429  O 3   d 1      0.00205   0.00196
 430  O 3   d 2     -0.00414   0.00003
 431  O 3   d 3     -0.00184  -0.00122
 432  O 3   d 4      0.00422   0.00010
 433  O 3   d 5      0.00175  -0.00145
 434  O 3   d 1     -0.01233  -0.00816
 435  O 3   d 2      0.03013   0.00738
 436  O 3   d 3      0.01113   0.00436
 437  O 3   d 4     -0.01938  -0.00030
 438  O 3   d 5     -0.00836   0.01235
 439  O 3   d 1     -0.08329   0.01565
 440  O 3   d 2      0.10339   0.02310
 441  O 3   d 3      0.04563  -0.03104
 442  O 3   d 4     -0.01855   0.00957
 443  O 3   d 5     -0.04386   0.05543
 444  O 3   f 1     -0.00024   0.00024
 445  O 3   f 2     -0.00061   0.00006
 446  O 3   f 3      0.00003  -0.00001
 447  O 3   f 4      0.00006   0.00014
 448  O 3   f 5      0.00032  -0.00028
 449  O 3   f 6      0.00007  -0.00067
 450  O 3   f 7     -0.00029  -0.00018
 451  O 3   f 1      0.00194  -0.00150
 452  O 3   f 2      0.00399   0.00045
 453  O 3   f 3      0.00039   0.00098
 454  O 3   f 4     -0.00001  -0.00004
 455  O 3   f 5     -0.00236   0.00127
 456  O 3   f 6      0.00062   0.00392
 457  O 3   f 7      0.00211   0.00089
 458  O 3   f 1      0.03640  -0.01872
 459  O 3   f 2      0.01521   0.00127
 460  O 3   f 3      0.00956   0.01231
 461  O 3   f 4      0.01022  -0.00434
 462  O 3   f 5     -0.03485   0.01661
 463  O 3   f 6      0.01557   0.02513
 464  O 3   f 7      0.01014   0.00033
 465  O 3   g 1      0.00011  -0.00006
 466  O 3   g 2     -0.00013   0.00035
 467  O 3   g 3     -0.00011   0.00036
 468  O 3   g 4      0.00010  -0.00005
 469  O 3   g 5      0.00003  -0.00004
 470  O 3   g 6      0.00010  -0.00025
 471  O 3   g 7     -0.00011  -0.00002
 472  O 3   g 8      0.00010   0.00013
 473  O 3   g 9     -0.00021   0.00018
 474  O 3   g 1     -0.00528   0.00016
 475  O 3   g 2      0.00007  -0.00604
 476  O 3   g 3      0.00609  -0.00332
 477  O 3   g 4      0.00040   0.00080
 478  O 3   g 5      0.00007   0.00219
 479  O 3   g 6     -0.00028   0.00308
 480  O 3   g 7      0.00420   0.00265
 481  O 3   g 8      0.00246   0.00007
 482  O 3   g 9      0.00287  -0.00224
 483  O 3   h 1      0.00030  -0.00009
 484  O 3   h 2     -0.00017  -0.00012
 485  O 3   h 3     -0.00042  -0.00039
 486  O 3   h 4      0.00019  -0.00036
 487  O 3   h 5     -0.00006  -0.00033
 488  O 3   h 6      0.00033   0.00023
 489  O 3   h 7      0.00054  -0.00026
 490  O 3   h 8      0.00013   0.00018
 491  O 3   h 9      0.00041   0.00019
 492  O 3   h10      0.00011  -0.00039
 493  O 3   h11     -0.00052   0.00005
 494  H 5   s        0.00798  -0.00640
 495  H 5   s        0.00058  -0.00869
 496  H 5   s        0.50861  -0.12026
 497  H 5   s        0.44546  -0.08868
 498  H 5   s        1.36039  -1.73971
 499  H 5   px      -0.00243   0.00229
 500  H 5   py      -0.00152   0.00111
 501  H 5   pz      -0.00050   0.00015
 502  H 5   px       0.00339  -0.00289
 503  H 5   py       0.00493  -0.00164
 504  H 5   pz      -0.00172   0.00076
 505  H 5   px       0.11209   0.02887
 506  H 5   py       0.02835   0.01791
 507  H 5   pz       0.03413  -0.02521
 508  H 5   px       0.13681  -0.00533
 509  H 5   py       0.05295  -0.03872
 510  H 5   pz       0.07876  -0.01930
 511  H 5   d 1     -0.00018   0.00010
 512  H 5   d 2     -0.00005   0.00034
 513  H 5   d 3      0.00051   0.00003
 514  H 5   d 4     -0.00044   0.00047
 515  H 5   d 5     -0.00054   0.00030
 516  H 5   d 1      0.00911   0.00204
 517  H 5   d 2      0.00215  -0.00299
 518  H 5   d 3     -0.00878  -0.00157
 519  H 5   d 4      0.00744  -0.00549
 520  H 5   d 5      0.01131  -0.00207
 521  H 5   d 1     -0.00097   0.00799
 522  H 5   d 2      0.00800  -0.01246
 523  H 5   d 3      0.00435  -0.00868
 524  H 5   d 4      0.02595  -0.02184
 525  H 5   d 5      0.01118   0.00812
 526  H 5   f 1      0.00166   0.00017
 527  H 5   f 2      0.00018  -0.00006
 528  H 5   f 3     -0.00074  -0.00017
 529  H 5   f 4     -0.00063   0.00012
 530  H 5   f 5     -0.00106  -0.00004
 531  H 5   f 6      0.00065  -0.00039
 532  H 5   f 7      0.00086  -0.00018
 533  H 5   f 1     -0.00267   0.00163
 534  H 5   f 2      0.00302  -0.00485
 535  H 5   f 3      0.00277  -0.00123
 536  H 5   f 4     -0.00186   0.00458
 537  H 5   f 5      0.00247  -0.00311
 538  H 5   f 6      0.00189  -0.00315
 539  H 5   f 7      0.00063   0.00025
 540  H 5   g 1      0.00020   0.00012
 541  H 5   g 2      0.00029  -0.00047
 542  H 5   g 3      0.00013  -0.00024
 543  H 5   g 4     -0.00007   0.00015
 544  H 5   g 5      0.00002   0.00025
 545  H 5   g 6     -0.00030   0.00043
 546  H 5   g 7      0.00000  -0.00014
 547  H 5   g 8      0.00017  -0.00026
 548  H 5   g 9      0.00015   0.00001
 549  H 6   s        0.00361   0.00261
 550  H 6   s        0.00789  -0.00378
 551  H 6   s        0.44228   0.12837
 552  H 6   s        0.26157  -0.12329
 553  H 6   s        0.16970   1.76008
 554  H 6   px       0.00049   0.00096
 555  H 6   py      -0.00127  -0.00172
 556  H 6   pz       0.00133   0.00194
 557  H 6   px       0.00030  -0.00218
 558  H 6   py       0.00759   0.00346
 559  H 6   pz      -0.00586  -0.00291
 560  H 6   px      -0.03857  -0.03973
 561  H 6   py       0.05676  -0.03755
 562  H 6   pz      -0.08352   0.00080
 563  H 6   px      -0.06111  -0.04861
 564  H 6   py       0.06207  -0.03287
 565  H 6   pz      -0.08189   0.01576
 566  H 6   d 1     -0.00044   0.00058
 567  H 6   d 2     -0.00017   0.00017
 568  H 6   d 3     -0.00023  -0.00058
 569  H 6   d 4      0.00005  -0.00073
 570  H 6   d 5     -0.00004  -0.00026
 571  H 6   d 1     -0.00227  -0.00673
 572  H 6   d 2     -0.01213   0.00054
 573  H 6   d 3      0.00606   0.00448
 574  H 6   d 4      0.00527   0.01087
 575  H 6   d 5     -0.00423   0.00659
 576  H 6   d 1      0.00173  -0.01561
 577  H 6   d 2      0.00249   0.02108
 578  H 6   d 3     -0.00458   0.00196
 579  H 6   d 4      0.00426   0.02476
 580  H 6   d 5      0.01111   0.02671
 581  H 6   f 1     -0.00037   0.00045
 582  H 6   f 2      0.00122   0.00043
 583  H 6   f 3      0.00146   0.00024
 584  H 6   f 4      0.00015   0.00012
 585  H 6   f 5     -0.00067  -0.00065
 586  H 6   f 6      0.00060  -0.00056
 587  H 6   f 7      0.00046  -0.00018
 588  H 6   f 1      0.00066   0.00635
 589  H 6   f 2     -0.00439   0.00632
 590  H 6   f 3     -0.00167  -0.00116
 591  H 6   f 4     -0.00065  -0.00234
 592  H 6   f 5      0.00209  -0.00499
 593  H 6   f 6     -0.00078  -0.00816
 594  H 6   f 7     -0.00253   0.00154
 595  H 6   g 1     -0.00011  -0.00024
 596  H 6   g 2      0.00009  -0.00091
 597  H 6   g 3      0.00018  -0.00059
 598  H 6   g 4     -0.00018  -0.00012
 599  H 6   g 5      0.00008  -0.00005
 600  H 6   g 6     -0.00005   0.00033
 601  H 6   g 7     -0.00001   0.00056
 602  H 6   g 8      0.00008  -0.00005
 603  H 6   g 9      0.00013  -0.00044

 -----------------------------------------------------------------
                    Cartesian Multipole Moments
 -----------------------------------------------------------------
    Charge (ESU x 10^10)
                 0.0000
    Dipole Moment (Debye)
         X      -2.2936      Y       0.6094      Z      -1.2842
       Tot       2.6983
    Quadrupole Moments (Debye-Ang)
        XX     -19.7478     XY      -3.8249     YY     -26.1167
        XZ       5.2853     YZ       9.1779     ZZ     -22.3718
    Octopole Moments (Debye-Ang^2)
       XXX      -2.7632    XXY      -1.9092    XYY     -22.3156
       YYY     -34.3352    XXZ       0.7023    XYZ       5.6410
       YYZ      -9.1232    XZZ      -3.2543    YZZ       3.2592
       ZZZ       0.0849
    Hexadecapole Moments (Debye-Ang^3)
      XXXX    -136.4085   XXXY     -86.3983   XXYY    -153.0471
      XYYY    -105.4594   YYYY    -674.8381   XXXZ      44.7248
      XXYZ      37.9486   XYYZ      35.6182   YYYZ     163.6383
      XXZZ     -40.8039   XYZZ     -37.0802   YYZZ    -143.1330
      XZZZ      35.0227   YZZZ      83.1675   ZZZZ     -67.9960
 -----------------------------------------------------------------
 Total job time:  37195.41s(wall), 73758.71s(cpu) 
 Tue Dec 31 00:57:37 2024

        *************************************************************
        *                                                           *
        *  Thank you very much for using Q-Chem.  Have a nice day.  *
        *                                                           *
        *************************************************************


