                  Welcome to Q-Chem
     A Quantum Leap Into The Future Of Chemistry


 Q-Chem 6.2 (devel), Q-Chem, Inc., Pleasanton, CA (2024)

 E. Epifanovsky,  A. T. B. Gilbert,  Xintian Feng,  Joonho Lee,  Yuezhi Mao,  
 N. Mardirossian,  P. Pokhilko,  A. White,  M. Wormit,  M. P. Coons,  
 A. L. Dempwolff,  Zhengting Gan,  D. Hait,  P. R. Horn,  L. D. Jacobson,  
 I. Kaliman,  J. Kussmann,  A. W. Lange,  Ka Un Lao,  D. S. Levine,  Jie Liu,  
 S. C. McKenzie,  A. F. Morrison,  K. D. Nanda,  F. Plasser,  D. R. Rehn,  
 M. L. Vidal,  Zhi-Qiang You,  Ying Zhu,  Huseyin Aksu,  B. Alam,  
 B. Albrecht,  A. Aldossary,  E. Alguire,  J. H. Andersen,  
 J. E. Arias-Martinez,  V. Athavale,  D. Barton,  K. Begam,  A. Behn,  
 N. Bellonzi,  Y. A. Bernard,  E. J. Berquist,  H. Burton,  A. Carreras,  
 K. Carter-Fenk,  Mathew Chow,  Romit Chakraborty,  Chandrima Chakravarty,  
 Junhan Chen,  A. D. Chien,  K. D. Closser,  V. Cofer-Shabica,  L. Cunha,  
 S. Dasgupta,  Jia Deng,  Joseph Dickinson,  M. de Wergifosse,  
 M. Diedenhofen,  Hainam Do,  Wenjie Dou,  S. Ehlert,  Po-Tung Fang,  
 S. Fatehi,  Qingguo Feng,  Jonathan Fetherolf,  T. Friedhoff,  
 Thomas Froitzheim,  Sarai Folkestad,  B. Ganoe,  J. Gayvert,  Qinghui Ge,  
 G. Gidofalvi,  M. Gimferrer,  M. Goldey,  Montgomery Gray,  J. Gomes,  
 C. Gonzalez-Espinoza,  S. Gulania,  A. Gunina,  J. A. Gyamfi,  
 M. W. D. Hanson-Heine,  P. H. P. Harbach,  A. W. Hauser,  M. F. Herbst,  
 M. Hernandez Vera,  M. Hodecker,  Z. C. Holden,  S. Houck,  Xunkun Huang,  
 Kerwin Hui,  B. C. Huynh,  K. Ikeda,  M. Ivanov,  Nayanthara K. Jayadev,  
 Hyunjun Ji,  Zuxin Jin,  Hanjie Jiang,  Subrata Jana,  B. Kaduk,  
 S. Kaehler,  R. Kang,  K. Khistyaev,  Jaehoon Kim,  Yongbin Kim,  
 P. Klunzinger,  Z. Koczor-Benda,  Joong Hoon Koh,  D. Kosenkov,  
 Saikiran Kotaru,  L. Koulias,  T. Kowalczyk,  C. M. Krauter,  K. Kue,  
 A. Kunitsa,  T. Kus,  A. Landau,  K. V. Lawler,  D. Lefrancois,  S. Lehtola,  
 Rain Li,  Shaozhi Li,  Tao E. Li,  Yi-Pei Li,  Jiashu Liang,  M. Liebenthal,  
 Hung-Hsuan Lin,  You-Sheng Lin,  Fenglai Liu,  Kuan-Yu Liu,  Xiao Liu,  
 M. Loipersberger,  A. Luenser,  C. Malbon,  Aniket Mandal,  Manisha,  
 A. Manjanath,  P. Manohar,  E. Mansoor,  S. F. Manzer,  Shan-Ping Mao,  
 A. V. Marenich,  T. Markovich,  S. Mason,  F. Matz,  S. A. Maurer,  
 Samuel May,  Alexandra McIsaac,  P. F. McLaughlin,  M. F. S. J. Menger,  
 J.-M. Mewes,  S. A. Mewes,  P. Morgante,  Mohammad Mostafanejad,  
 Madhubani Mukherjee,  J. W. Mullinax,  Quyen Nguyen,  Avik Kumar Ojha,  
 K. J. Oosterbaan,  Eno Paenurk,  Xiaoliang Pan,  G. Paran,  V. Parravicini,  
 Alexander C. Paul,  Suranjan K. Paul,  F. Pavosevic,  Zheng Pei,  S. Prager,  
 E. I. Proynov,  E. Ramos,  B. Rana,  A. E. Rask,  A. Rettig,  R. M. Richard,  
 F. Rob,  E. Rossomme,  T. Scheele,  M. Scheurer,  M. Schneider,  
 P. E. Schneider,  Tim K. Schramm,  N. Sergueev,  S. M. Sharada,  
 Hengyuan Shen,  W. Skomorowski,  D. W. Small,  C. J. Stein,  
 Alistair J. Sterling,  Yingli Su,  Yu-Chuan Su,  E. J. Sundstrom,  
 J. Talbot,  Zhen Tao,  J. Thirman,  Hung-Yi Tsai,  T. Tsuchimochi,  
 N. M. Tubman,  C. Utku,  S. P. Veccham,  O. Vydrov,  Rahel Weiss,  
 J. Wenzel,  Jonathan Wong,  J. Witte,  H. Wu,  Yanze Wu,  A. Yamada,  
 Chou-Hsun Yang,  Kun Yao,  S. Yeganeh,  S. R. Yost,  Qi Yu,  A. Zech,  
 F. Zeller,  Chongxiao Zhao,  Igor Ying Zhang,  Xing Zhang,  Yu Zhang,  
 D. Zuev,  A. Aspuru-Guzik,  A. T. Bell,  N. A. Besley,  K. B. Bravaya,  
 B. R. Brooks,  D. Casanova,  Jeng-Da Chai,  Hsing-Ta Chen,  S. Coriani,  
 C. J. Cramer,  A. E. DePrince, III,  R. A. DiStasio Jr.,  A. Dreuw,  
 B. D. Dunietz,  T. R. Furlani,  W. A. Goddard III,  S. Grimme,  
 S. Hammes-Schiffer,  T. Head-Gordon,  W. J. Hehre,  Chao-Ping Hsu,  
 T.-C. Jagau,  Yousung Jung,  A. Klamt,  Jing Kong,  D. S. Lambrecht,  
 Xiangyuan Li,  WanZhen Liang,  N. J. Mayhall,  C. W. McCurdy,  J. B. Neaton,  
 T. Neudecker,  C. Ochsenfeld,  J. A. Parkhill,  R. Peverati,  
 V. A. Rassolov,  Haisheng Ren,  Yihan Shao,  L. V. Slipchenko,  
 R. P. Steele,  J. E. Subotnik,  A. J. W. Thom,  A. Tkatchenko,  
 D. G. Truhlar,  T. Van Voorhis,  Fan Wang,  T. A. Wesolowski,  K. B. Whaley,  
 H. L. Woodcock III,  P. M. Zimmerman,  S. Faraji,  P. M. W. Gill,  
 M. Head-Gordon,  J. M. Herbert,  A. I. Krylov

 Contributors to earlier versions of Q-Chem not listed above: 
 R. D. Adamson,  B. Austin,  R. Baer,  J. Baker,  G. J. O. Beran,  
 K. Brandhorst,  S. T. Brown,  E. F. C. Byrd,  Arup K. Chakraborty,  
 G. K. L. Chan,  Chun-Min Chang,  Yunqing Chen,  C.-L. Cheng,  
 Siu Hung Chien,  D. M. Chipman,  D. L. Crittenden,  H. Dachsel,  
 R. J. Doerksen,  A. D. Dutoi,  R. G. Edgar,  J. Fosso-Tande,  
 L. Fusti-Molnar,  D. Ghosh,  A. Ghysels,  A. Golubeva-Zadorozhnaya,  
 J. Gonthier,  M. S. Gordon,  S. R. Gwaltney,  G. Hawkins,  J. E. Herr,  
 A. Heyden,  S. Hirata,  E. G. Hohenstein,  G. Kedziora,  F. J. Keil,  
 C. Kelley,  Jihan Kim,  R. A. King,  R. Z. Khaliullin,  P. P. Korambath,  
 W. Kurlancheek,  A. Laurent,  A. M. Lee,  M. S. Lee,  S. V. Levchenko,  
 Ching Yeh Lin,  D. Liotard,  E. Livshits,  R. C. Lochan,  I. Lotan,  
 L. A. Martinez-Martinez,  P. E. Maslen,  N. Nair,  D. P. O'Neill,  
 D. Neuhauser,  E. Neuscamman,  C. M. Oana,  R. Olivares-Amaya,  R. Olson,  
 T. M. Perrine,  B. Peters,  P. A. Pieniazek,  A. Prociuk,  Y. M. Rhee,  
 J. Ritchie,  M. A. Rohrdanz,  E. Rosta,  N. J. Russ,  H. F. Schaefer III,  
 M. W. Schmidt,  N. E. Schultz,  S. Sharma,  N. Shenvi,  C. D. Sherrill,  
 A. C. Simmonett,  A. Sodt,  T. Stein,  D. Stuck,  K. S. Thanthiriwatte,  
 V. Vanovschi,  L. Vogt,  Tao Wang,  A. Warshel,  M. A. Watson,  
 C. F. Williams,  Q. Wu,  X. Xu,  Jun Yang,  W. Zhang,  Yan Zhao

   Please cite Q-Chem as follows:
  "Software for the frontiers of quantum chemistry:
   An overview of developments in the Q-Chem 5 package"
   J. Chem. Phys. 155, 084801 (2021)
   https://doi.org/10.1063/5.0055522 (open access)

 Q-Chem 6.2.2 for Intel X86 EM64T Linux

 Parts of Q-Chem use Armadillo 9.900.5 (Nocturnal Misbehaviour).
 http://arma.sourceforge.net/

 Q-Chem begins on Tue Dec 17 21:34:01 2024  

 Host: compute-0-14.local
0

     Scratch files written to /scratch/keith/A0D0_1//
 Processing $rem in /home/keith/software/qchem/qchem_622/config/preferences:
 Processing $rem in /home/keith/.qchemrc:

 Checking the input file for inconsistencies... 	...done.

--------------------------------------------------------------
User input:
--------------------------------------------------------------
$molecule
0 1
O -1.03122 0.40684 0.24804
O -0.28352 -3.00216 0.64564
H -0.50512 -2.13816 0.35064
H -0.49552 -3.65416 -0.04416
H -1.65102 0.59184 -0.48686
H -0.78532 1.26584 0.59964
O 1.39318 2.57894 -0.84806
H 0.50088 2.17614 -0.96886
H 1.69118 2.01824 -0.17426
$end

$rem
method                    b3lyp 
basis                     cc-pv5z 
mem_total                 48000
mem_static                8000
thresh                    12
scf_convergence           8
xc_grid                   000075000302
max_scf_cycles            2000
symmetry                  false
sym_ignore                true
print_orbitals true
$end
gui                       2
molden_format true
--------------------------------------------------------------
 ----------------------------------------------------------------
             Standard Nuclear Orientation (Angstroms)
    I     Atom           X                Y                Z
 ----------------------------------------------------------------
    1      O      -1.0312200000     0.4068400000     0.2480400000
    2      O      -0.2835200000    -3.0021600000     0.6456400000
    3      H      -0.5051200000    -2.1381600000     0.3506400000
    4      H      -0.4955200000    -3.6541600000    -0.0441600000
    5      H      -1.6510200000     0.5918400000    -0.4868600000
    6      H      -0.7853200000     1.2658400000     0.5996400000
    7      O       1.3931800000     2.5789400000    -0.8480600000
    8      H       0.5008800000     2.1761400000    -0.9688600000
    9      H       1.6911800000     2.0182400000    -0.1742600000
 ----------------------------------------------------------------
 Nuclear Repulsion Energy =          67.60410860 hartrees
 There are       15 alpha and       15 beta electrons
 Requested basis set is cc-pV5Z
 There are 153 shells and 603 basis functions

 Total QAlloc Memory Limit  48000 MB
 Mega-Array Size      7821 MB
 MEM_STATIC part      8000 MB


                       Distance Matrix (Angstroms)
             O (  1)   O (  2)   H (  3)   H (  4)   H (  5)   H (  6)
   O (  2)  3.512609
   H (  3)  2.600833  0.939483
   H (  4)  4.106589  0.972560  1.566594
   H (  5)  0.979007  4.008672  3.076913  4.422633
   H (  6)  0.960193  4.297644  3.424577  4.970399  1.544084
   O (  7)  3.434701  6.015907  5.224123  6.562391  3.653243  2.926761
   H (  8)  2.637916  5.480573  4.622370  5.986675  2.715328  2.223319
   H (  9)  3.191615  5.456747  4.730213  6.080683  3.647278  2.701496
             O (  7)   H (  8)
   H (  8)  0.986428
   H (  9)  0.925848  1.439839

 A cutoff of  1.0D-12 yielded   8303 shell pairs
 There are    115729 function pairs (    195541 Cartesian)
 Smallest overlap matrix eigenvalue = 4.32E-05

 Scale SEOQF with 1.000000e-01/1.000000e-01/1.000000e+00

 Standard Electronic Orientation quadrupole field applied
 Nucleus-field energy     =     0.0000000001 hartrees
 Guess from superposition of atomic densities
 Warning:  Energy on first SCF cycle will be non-variational
 SAD guess density has 30.000000 electrons

 -----------------------------------------------------------------------
  General SCF calculation program by
  Eric Jon Sundstrom, Paul Horn, Yuezhi Mao, Dmitri Zuev, Alec White,
  David Stuck, Shaama M.S., Shane Yost, Joonho Lee, David Small,
  Daniel Levine, Susi Lehtola, Hugh Burton, Evgeny Epifanovsky,
  Bang C. Huynh
 -----------------------------------------------------------------------
 Exchange:     0.2000 Hartree-Fock + 0.0800 Slater + 0.7200 B88
 Correlation:  0.1900 VWN1RPA + 0.8100 LYP
 Using Euler-Maclaurin-Lebedev (75,302) quadrature formula
 A restricted SCF calculation will be
 performed using DIIS
 SCF converges when DIIS error is below 1.0e-08
 ---------------------------------------
  Cycle       Energy         DIIS error
 ---------------------------------------
    1    -229.2897608165      9.49e-03  
    2    -229.2055242103      2.57e-03  
    3    -228.9479524012      3.86e-03  
    4    -229.4183813657      6.67e-05  
    5    -229.4185085331      2.63e-05  
    6    -229.4185215480      1.38e-05  
    7    -229.4185268979      2.79e-06  
    8    -229.4185271419      2.23e-07  
    9    -229.4185271427      1.66e-07  
   10    -229.4185271435      3.36e-08  
   11    -229.4185271435      1.80e-09  Convergence criterion met
 ---------------------------------------
 SCF time:   CPU 14867.62s  wall 480.00s 
 SCF   energy =  -229.41852714
 Total energy =  -229.41852714

 --------------------------------------------------------------

                    Orbital Energies (a.u.)
 --------------------------------------------------------------

 Alpha MOs
 -- Occupied --
-19.1671 -19.1411 -19.1188  -1.0482  -1.0335  -1.0065  -0.5694  -0.5385
 -0.5340  -0.4313  -0.4177  -0.3779  -0.3542  -0.3311  -0.3112
 -- Virtual --
 -0.0419   0.0106   0.0246   0.0510   0.0669   0.1004   0.1726   0.1858
  0.1995   0.2084   0.2259   0.2372   0.2488   0.2512   0.2644   0.2660
  0.2881   0.3067   0.3161   0.3324   0.3631   0.3690   0.3916   0.4084
  0.4170   0.4249   0.4535   0.4770   0.4981   0.5374   0.5798   0.5992
  0.6104   0.6233   0.6434   0.6703   0.6985   0.7194   0.7247   0.7320
  0.7628   0.7773   0.7954   0.8257   0.8401   0.8562   0.8852   0.9250
  0.9706   0.9893   1.0037   1.0054   1.0131   1.0464   1.0647   1.0719
  1.0851   1.1177   1.1413   1.1811   1.1961   1.2195   1.2641   1.2697
  1.2798   1.3207   1.3548   1.3690   1.3751   1.3885   1.4530   1.4856
  1.5006   1.5135   1.5264   1.5388   1.5517   1.5584   1.5679   1.6199
  1.6498   1.6689   1.6793   1.6964   1.7043   1.7134   1.7292   1.7308
  1.7471   1.7739   1.7842   1.7996   1.8171   1.8224   1.8354   1.8580
  1.8664   1.9073   1.9286   1.9496   1.9806   1.9988   2.0056   2.0127
  2.0212   2.0402   2.0644   2.1224   2.1734   2.2036   2.2515   2.2970
  2.3087   2.3311   2.3443   2.3658   2.3929   2.4085   2.4280   2.4761
  2.4967   2.5269   2.5878   2.6016   2.6260   2.6321   2.6410   2.6647
  2.6945   2.7043   2.7251   2.7358   2.7437   2.8330   2.8476   2.8727
  2.8858   2.9223   2.9449   2.9806   2.9939   3.0209   3.0894   3.1125
  3.1631   3.2034   3.2410   3.2825   3.3042   3.3361   3.3675   3.3924
  3.4111   3.4239   3.4475   3.4573   3.4862   3.5032   3.5099   3.5241
  3.5377   3.5597   3.5885   3.6138   3.6841   3.7321   3.7622   3.7957
  3.8101   3.8253   3.8475   3.9074   3.9292   3.9579   3.9968   4.0034
  4.0502   4.0633   4.0787   4.1082   4.2358   4.2806   4.2993   4.3393
  4.3452   4.3749   4.3965   4.4123   4.4265   4.4464   4.4501   4.4536
  4.4629   4.4771   4.5132   4.5280   4.5380   4.5485   4.5597   4.5825
  4.6104   4.6225   4.6562   4.6701   4.7318   4.7351   4.7499   4.7703
  4.7849   4.8014   4.8210   4.8354   4.8443   4.8491   4.9184   4.9481
  4.9677   5.0317   5.0482   5.0600   5.0875   5.1399   5.1654   5.2158
  5.2713   5.2896   5.3103   5.3427   5.3517   5.3633   5.3847   5.4142
  5.4710   5.5386   5.6401   5.6856   5.6968   5.7035   5.7395   5.8392
  5.8640   5.9249   5.9766   5.9908   6.0056   6.0247   6.1994   6.2279
  6.2370   6.2604   6.2686   6.3031   6.3454   6.3688   6.4029   6.5406
  6.5619   6.5765   6.5923   6.6644   6.7131   6.7254   6.7354   6.7398
  6.7494   6.7571   6.7668   6.7820   6.8082   6.8760   6.9024   6.9086
  6.9245   6.9501   6.9623   7.0201   7.0669   7.0675   7.0900   7.1421
  7.1689   7.2141   7.2362   7.2739   7.2763   7.2820   7.3280   7.4471
  7.4643   7.4987   7.5062   7.6022   7.6264   7.6512   7.7117   7.7612
  7.7908   7.8030   7.8193   7.8701   7.8852   7.8932   7.9178   8.1554
  8.2390   8.2867   8.5038   8.5802   8.6025   8.9549   8.9747   9.0013
  9.0180   9.0239   9.0434   9.0864   9.1316   9.1675   9.6216   9.6675
  9.6792   9.7113   9.7289   9.7513   9.7635   9.7864   9.8798  11.6553
 11.6694  11.7068  11.7147  11.7407  11.7606  11.7679  11.7696  11.8416
 11.8572  11.8736  11.8879  11.9655  11.9736  12.0377  12.0528  12.0611
 12.0987  12.1295  12.1422  12.1449  12.1525  12.1593  12.1651  12.1797
 12.2071  12.2190  12.2291  12.2373  12.2575  12.2777  12.2815  12.2909
 12.3345  12.3493  12.3737  12.4019  12.4197  12.4484  12.4572  12.4858
 12.4947  12.5089  12.5554  12.5587  12.5603  12.5729  12.6676  12.6889
 12.7283  12.7604  12.7785  12.7816  12.7967  12.8038  12.8156  12.8721
 12.9376  12.9604  12.9645  13.0061  13.0194  13.0314  13.1633  13.1871
 13.1929  13.2204  13.2592  13.3111  13.3282  13.3332  13.3453  13.3567
 13.3609  13.3812  13.4122  13.4258  13.4378  13.4430  13.4503  13.4663
 13.4787  13.5213  13.5404  13.5433  13.5672  13.5835  13.6221  13.6512
 13.6564  13.6838  13.7094  13.7648  13.7952  13.8385  13.8567  13.9205
 13.9477  13.9573  13.9766  14.0248  14.0671  14.1249  14.1376  14.1766
 14.2480  14.2811  14.2834  14.3311  14.3837  14.4574  14.4701  14.5036
 14.6201  14.6430  14.7934  15.1106  15.1311  15.1580  15.1610  15.3374
 15.4463  15.4577  15.5140  15.6245  15.6638  15.6730  15.7089  15.7226
 15.7625  15.7925  15.8786  15.9326  15.9824  16.0331  16.0460  16.0728
 16.0759  16.0968  16.1125  16.1348  16.1498  16.1799  16.2076  16.2147
 16.2301  16.2580  16.2682  16.2974  16.3433  16.3827  16.3952  16.5532
 16.7141  16.8347  16.9139  16.9342  16.9788  17.0057  17.0643  17.1002
 17.1653  17.1761  17.1783  17.2146  17.2743  17.2857  17.3448  17.4684
 17.5155  17.5360  17.5757  17.6079  17.6193  17.6533  17.7178  17.8743
 17.9675  18.0715  18.0760  18.1456  18.1548  18.1603  18.1991  18.2920
 18.3135  18.3232  18.3384  18.3488  18.3773  18.4656  18.5288  18.5432
 18.6646  18.7011  18.7946  18.8472  18.8507  18.8598  18.9986  19.0086
 19.0195  19.1905  19.3004  19.3430  19.3555  19.3679  19.4001  19.4075
 19.5207  19.5970  19.6148  19.6356  19.6442  19.6760  19.7759  19.8244
 19.8640  19.9316  20.6126  20.6990  20.7036  20.8018  20.9564  21.0446
 21.8081  21.8337  21.8537  21.8725  21.8905  21.9380  22.2143  22.2274
 22.2368  22.6489  22.7377  22.8673  22.8893  22.9113  22.9245  23.1248
 23.2033  23.5489  23.5645  23.7667  23.8959  24.2076  24.3280  24.5101
 24.5512  24.5731  24.8779  24.9987  25.0441  25.2246  25.8396  26.2982
 26.3988  63.9419  64.1500  64.1886
 --------------------------------------------------------------


                        RESTRICTED (RHF) MOLECULAR ORBITAL COEFFICIENTS
                         1         2         3         4         5         6
 eigenvalues:        -19.167   -19.141   -19.119    -1.048    -1.034    -1.006
   1  O 1   s       -0.97837   0.00002  -0.00001  -0.01865  -0.00239  -0.00031
   2  O 1   s       -0.03077   0.00001  -0.00001   0.28409   0.03698   0.00489
   3  O 1   s       -0.08484   0.00002  -0.00003   0.00765   0.00102   0.00014
   4  O 1   s        0.01485   0.00005   0.00021   0.32695   0.04248   0.00552
   5  O 1   s        0.01455  -0.00076  -0.00087   0.43909   0.05774   0.00820
   6  O 1   s        0.00270  -0.00047  -0.00014   0.16891   0.02258   0.00290
   7  O 1   px       0.00036  -0.00000   0.00000  -0.00667  -0.00113  -0.00017
   8  O 1   py      -0.00109  -0.00000   0.00000   0.02197   0.00265   0.00064
   9  O 1   pz       0.00040   0.00000   0.00000  -0.00719  -0.00091  -0.00014
  10  O 1   px       0.00017   0.00000  -0.00003  -0.01082  -0.00185  -0.00028
  11  O 1   py      -0.00063   0.00003   0.00001   0.03589   0.00431   0.00104
  12  O 1   pz       0.00017  -0.00001  -0.00003  -0.01177  -0.00147  -0.00024
  13  O 1   px      -0.00224  -0.00004   0.00009  -0.01883  -0.00303  -0.00044
  14  O 1   py       0.00824  -0.00025  -0.00011   0.06007   0.00741   0.00166
  15  O 1   pz      -0.00220   0.00000   0.00010  -0.02005  -0.00256  -0.00039
  16  O 1   px       0.00002  -0.00011   0.00071  -0.01143  -0.00213  -0.00061
  17  O 1   py       0.00131  -0.00054   0.00013   0.04139   0.00511   0.00165
  18  O 1   pz       0.00019   0.00012   0.00090  -0.01378  -0.00161  -0.00051
  19  O 1   px       0.00003   0.00001   0.00006  -0.00137  -0.00008  -0.00023
  20  O 1   py       0.00039  -0.00002   0.00052   0.00577   0.00070   0.00078
  21  O 1   pz       0.00016  -0.00001   0.00017  -0.00225  -0.00025  -0.00019
  22  O 1   d 1     -0.00005   0.00000   0.00000  -0.00000  -0.00001  -0.00000
  23  O 1   d 2     -0.00008   0.00000  -0.00000   0.00003   0.00000   0.00000
  24  O 1   d 3     -0.00000  -0.00000   0.00000  -0.00004  -0.00000  -0.00000
  25  O 1   d 4     -0.00025   0.00000  -0.00000   0.00023   0.00003   0.00001
  26  O 1   d 5      0.00010  -0.00000   0.00001  -0.00017  -0.00002  -0.00001
  27  O 1   d 1      0.00007  -0.00001  -0.00001   0.00026   0.00001   0.00002
  28  O 1   d 2      0.00013  -0.00001   0.00000   0.00049   0.00007   0.00001
  29  O 1   d 3     -0.00001   0.00000  -0.00001  -0.00013  -0.00001   0.00002
  30  O 1   d 4      0.00041  -0.00000   0.00001   0.00209   0.00028   0.00004
  31  O 1   d 5     -0.00018  -0.00000  -0.00002  -0.00107  -0.00013   0.00001
  32  O 1   d 1      0.00081  -0.00001   0.00005   0.00105   0.00005  -0.00003
  33  O 1   d 2      0.00119   0.00002   0.00001   0.00217   0.00034   0.00002
  34  O 1   d 3      0.00013   0.00002   0.00001  -0.00035   0.00003  -0.00007
  35  O 1   d 4      0.00265  -0.00003  -0.00009   0.00975   0.00130   0.00018
  36  O 1   d 5     -0.00090   0.00010   0.00007  -0.00451  -0.00058  -0.00020
  37  O 1   d 1     -0.00008   0.00006   0.00012   0.00108   0.00006   0.00000
  38  O 1   d 2     -0.00003   0.00014   0.00019   0.00130   0.00042  -0.00004
  39  O 1   d 3     -0.00002   0.00002  -0.00018  -0.00079   0.00000   0.00012
  40  O 1   d 4     -0.00060  -0.00005  -0.00028   0.00535   0.00083   0.00010
  41  O 1   d 5      0.00008   0.00013  -0.00025  -0.00385  -0.00054   0.00011
  42  O 1   f 1      0.00003  -0.00000  -0.00000  -0.00000  -0.00000  -0.00000
  43  O 1   f 2     -0.00007   0.00000  -0.00000   0.00000   0.00000   0.00000
  44  O 1   f 3     -0.00000  -0.00000   0.00000   0.00001   0.00000  -0.00000
  45  O 1   f 4      0.00004  -0.00000  -0.00000  -0.00002  -0.00000   0.00000
  46  O 1   f 5      0.00009  -0.00000  -0.00000  -0.00001  -0.00000  -0.00000
  47  O 1   f 6      0.00012  -0.00000  -0.00000  -0.00004  -0.00000  -0.00000
  48  O 1   f 7      0.00008   0.00000  -0.00000  -0.00004  -0.00000   0.00000
  49  O 1   f 1     -0.00023   0.00001   0.00001  -0.00062  -0.00009  -0.00001
  50  O 1   f 2      0.00060  -0.00001   0.00000   0.00143   0.00018   0.00002
  51  O 1   f 3      0.00002   0.00001   0.00000  -0.00007   0.00000   0.00000
  52  O 1   f 4     -0.00035   0.00001   0.00000  -0.00060  -0.00007  -0.00002
  53  O 1   f 5     -0.00066   0.00001   0.00001  -0.00142  -0.00018  -0.00003
  54  O 1   f 6     -0.00095   0.00001   0.00001  -0.00187  -0.00025  -0.00004
  55  O 1   f 7     -0.00059   0.00001   0.00001  -0.00101  -0.00012  -0.00003
  56  O 1   f 1      0.00010   0.00001   0.00003  -0.00076  -0.00014  -0.00012
  57  O 1   f 2     -0.00022  -0.00006   0.00003   0.00181   0.00026   0.00006
  58  O 1   f 3      0.00003   0.00001   0.00004   0.00001   0.00003  -0.00007
  59  O 1   f 4      0.00007   0.00002  -0.00001  -0.00081  -0.00018  -0.00001
  60  O 1   f 5      0.00031   0.00003   0.00009  -0.00185  -0.00026  -0.00003
  61  O 1   f 6      0.00036  -0.00008   0.00006  -0.00237  -0.00039  -0.00004
  62  O 1   f 7      0.00020  -0.00005  -0.00003  -0.00157  -0.00018   0.00004
  63  O 1   g 1     -0.00007   0.00000   0.00000  -0.00010  -0.00001  -0.00000
  64  O 1   g 2     -0.00009   0.00000   0.00000  -0.00012  -0.00002  -0.00000
  65  O 1   g 3     -0.00005  -0.00000   0.00000  -0.00007  -0.00001  -0.00000
  66  O 1   g 4     -0.00007   0.00000   0.00000  -0.00010  -0.00001  -0.00000
  67  O 1   g 5     -0.00005   0.00000  -0.00000  -0.00005  -0.00001  -0.00000
  68  O 1   g 6      0.00002  -0.00000   0.00000   0.00002   0.00000   0.00000
  69  O 1   g 7      0.00007  -0.00000   0.00000   0.00008   0.00001   0.00000
  70  O 1   g 8     -0.00002  -0.00000   0.00000  -0.00002  -0.00000  -0.00000
  71  O 1   g 9      0.00003  -0.00000   0.00000   0.00005   0.00001   0.00000
  72  O 1   g 1     -0.00002  -0.00001  -0.00001  -0.00053  -0.00007  -0.00002
  73  O 1   g 2      0.00002  -0.00000   0.00001  -0.00070  -0.00010  -0.00002
  74  O 1   g 3      0.00005   0.00002   0.00000  -0.00047  -0.00005  -0.00002
  75  O 1   g 4     -0.00002   0.00001   0.00000  -0.00055  -0.00008  -0.00002
  76  O 1   g 5     -0.00004  -0.00002  -0.00001  -0.00027  -0.00004  -0.00000
  77  O 1   g 6      0.00001  -0.00001  -0.00001   0.00014   0.00002   0.00000
  78  O 1   g 7      0.00001  -0.00000  -0.00003   0.00057   0.00007   0.00001
  79  O 1   g 8     -0.00003   0.00002  -0.00002  -0.00021  -0.00003  -0.00000
  80  O 1   g 9     -0.00001   0.00000  -0.00002   0.00030   0.00005   0.00001
  81  O 1   h 1      0.00001  -0.00000  -0.00000   0.00005   0.00001   0.00000
  82  O 1   h 2     -0.00003   0.00000  -0.00000  -0.00003  -0.00001  -0.00000
  83  O 1   h 3      0.00002  -0.00000  -0.00000   0.00011   0.00001   0.00000
  84  O 1   h 4     -0.00000  -0.00000   0.00000   0.00002   0.00000   0.00000
  85  O 1   h 5     -0.00002  -0.00000  -0.00000  -0.00003  -0.00000   0.00000
  86  O 1   h 6      0.00005  -0.00000  -0.00000   0.00014   0.00002   0.00000
  87  O 1   h 7     -0.00001   0.00000  -0.00000   0.00001   0.00000   0.00000
  88  O 1   h 8     -0.00001   0.00000  -0.00000   0.00000   0.00000   0.00000
  89  O 1   h 9     -0.00004  -0.00000  -0.00000  -0.00005  -0.00001   0.00000
  90  O 1   h10      0.00000  -0.00000  -0.00000   0.00005   0.00001   0.00000
  91  O 1   h11      0.00003  -0.00000   0.00000   0.00010   0.00001   0.00000
  92  O 2   s       -0.00001  -0.00000  -0.97847  -0.00026  -0.00006   0.01892
  93  O 2   s       -0.00002  -0.00000  -0.03092   0.00427   0.00089  -0.28659
  94  O 2   s       -0.00004  -0.00000  -0.08506   0.00017   0.00003  -0.00770
  95  O 2   s        0.00008  -0.00000   0.01531   0.00501   0.00103  -0.32952
  96  O 2   s        0.00074   0.00000   0.01707   0.00350   0.00097  -0.44147
  97  O 2   s        0.00025  -0.00002   0.00251  -0.00046   0.00025  -0.16543
  98  O 2   px       0.00000   0.00000   0.00048  -0.00016  -0.00003   0.00943
  99  O 2   py       0.00000   0.00000  -0.00026   0.00022   0.00004  -0.00673
 100  O 2   pz       0.00000  -0.00000   0.00109  -0.00031  -0.00006   0.02088
 101  O 2   px      -0.00000  -0.00000   0.00024  -0.00027  -0.00006   0.01547
 102  O 2   py      -0.00001  -0.00000  -0.00022   0.00041   0.00007  -0.01100
 103  O 2   pz      -0.00000   0.00000   0.00051  -0.00052  -0.00011   0.03427
 104  O 2   px      -0.00005   0.00001  -0.00348  -0.00025  -0.00005   0.02569
 105  O 2   py       0.00021   0.00001   0.00332  -0.00010  -0.00003  -0.01781
 106  O 2   pz      -0.00009  -0.00000  -0.00750  -0.00065  -0.00015   0.05698
 107  O 2   px       0.00004   0.00004  -0.00047   0.00009   0.00002   0.01708
 108  O 2   py       0.00001   0.00002   0.00123   0.00131   0.00015  -0.01103
 109  O 2   pz      -0.00006  -0.00002  -0.00099   0.00065   0.00001   0.03803
 110  O 2   px      -0.00001   0.00000  -0.00005   0.00000   0.00000   0.00159
 111  O 2   py      -0.00008   0.00002  -0.00005   0.00020  -0.00000  -0.00104
 112  O 2   pz      -0.00006   0.00001  -0.00014   0.00020  -0.00001   0.00366
 113  O 2   d 1      0.00000   0.00000   0.00004  -0.00000  -0.00000   0.00007
 114  O 2   d 2      0.00000   0.00000  -0.00007  -0.00001  -0.00000   0.00001
 115  O 2   d 3      0.00000   0.00000   0.00002   0.00000   0.00000  -0.00004
 116  O 2   d 4     -0.00000   0.00000  -0.00011   0.00000   0.00000  -0.00017
 117  O 2   d 5      0.00000  -0.00000   0.00026  -0.00000  -0.00000   0.00026
 118  O 2   d 1     -0.00000  -0.00000  -0.00008  -0.00001  -0.00000   0.00042
 119  O 2   d 2     -0.00000  -0.00000   0.00009   0.00002   0.00000  -0.00036
 120  O 2   d 3      0.00000  -0.00000  -0.00001  -0.00002  -0.00000  -0.00005
 121  O 2   d 4      0.00001   0.00000   0.00021   0.00002   0.00000  -0.00114
 122  O 2   d 5     -0.00001   0.00000  -0.00044  -0.00006  -0.00001   0.00222
 123  O 2   d 1     -0.00000   0.00001  -0.00050   0.00002   0.00002   0.00172
 124  O 2   d 2     -0.00001  -0.00001   0.00075  -0.00010   0.00001  -0.00205
 125  O 2   d 3     -0.00005   0.00000  -0.00079   0.00021   0.00004  -0.00017
 126  O 2   d 4     -0.00001  -0.00000   0.00093   0.00008   0.00001  -0.00502
 127  O 2   d 5     -0.00008  -0.00001  -0.00340   0.00020   0.00002   0.01005
 128  O 2   d 1      0.00007   0.00002   0.00007  -0.00025   0.00000   0.00083
 129  O 2   d 2      0.00007  -0.00002  -0.00030  -0.00048  -0.00004  -0.00173
 130  O 2   d 3      0.00000   0.00000   0.00002  -0.00022  -0.00002   0.00044
 131  O 2   d 4     -0.00003  -0.00000  -0.00024  -0.00006  -0.00001  -0.00255
 132  O 2   d 5     -0.00002  -0.00001   0.00054  -0.00004  -0.00003   0.00615
 133  O 2   f 1      0.00000   0.00000   0.00005  -0.00000  -0.00000   0.00003
 134  O 2   f 2      0.00000  -0.00000   0.00001  -0.00000   0.00000  -0.00000
 135  O 2   f 3      0.00000  -0.00000   0.00011  -0.00001  -0.00000   0.00004
 136  O 2   f 4      0.00000  -0.00000  -0.00007   0.00000   0.00000  -0.00004
 137  O 2   f 5     -0.00000   0.00000   0.00001   0.00000   0.00000  -0.00001
 138  O 2   f 6      0.00000  -0.00000  -0.00012   0.00000   0.00000  -0.00005
 139  O 2   f 7      0.00000   0.00000  -0.00008   0.00000   0.00000  -0.00004
 140  O 2   f 1     -0.00001  -0.00000  -0.00038   0.00002   0.00000   0.00068
 141  O 2   f 2     -0.00000   0.00000  -0.00010   0.00001  -0.00000   0.00014
 142  O 2   f 3     -0.00001   0.00000  -0.00086   0.00002  -0.00000   0.00163
 143  O 2   f 4      0.00000   0.00000   0.00056  -0.00000  -0.00000  -0.00098
 144  O 2   f 5      0.00000  -0.00000  -0.00007  -0.00003  -0.00001   0.00044
 145  O 2   f 6      0.00000   0.00000   0.00097   0.00002   0.00000  -0.00193
 146  O 2   f 7      0.00000  -0.00000   0.00066   0.00000  -0.00000  -0.00135
 147  O 2   f 1     -0.00001  -0.00000   0.00008  -0.00017  -0.00003   0.00091
 148  O 2   f 2     -0.00003  -0.00000   0.00006   0.00007  -0.00000   0.00029
 149  O 2   f 3     -0.00000   0.00001   0.00036  -0.00003  -0.00001   0.00231
 150  O 2   f 4     -0.00001   0.00001  -0.00022  -0.00004  -0.00001  -0.00141
 151  O 2   f 5      0.00001  -0.00000   0.00006   0.00000  -0.00000   0.00043
 152  O 2   f 6     -0.00001   0.00001  -0.00042  -0.00007  -0.00001  -0.00265
 153  O 2   f 7     -0.00003  -0.00001  -0.00029   0.00005  -0.00000  -0.00182
 154  O 2   g 1      0.00000   0.00000   0.00004  -0.00000  -0.00000  -0.00006
 155  O 2   g 2      0.00000   0.00000   0.00002  -0.00000  -0.00000  -0.00004
 156  O 2   g 3      0.00000   0.00000   0.00006  -0.00000  -0.00000  -0.00007
 157  O 2   g 4      0.00000   0.00000   0.00009  -0.00000  -0.00000  -0.00013
 158  O 2   g 5     -0.00000   0.00000  -0.00004  -0.00000  -0.00000   0.00005
 159  O 2   g 6     -0.00000  -0.00000  -0.00001   0.00000   0.00000   0.00001
 160  O 2   g 7      0.00000   0.00000  -0.00005  -0.00000  -0.00000   0.00006
 161  O 2   g 8     -0.00000  -0.00000  -0.00010   0.00000  -0.00000   0.00012
 162  O 2   g 9      0.00000   0.00000   0.00005  -0.00000  -0.00000  -0.00005
 163  O 2   g 1     -0.00001  -0.00000   0.00002   0.00004   0.00000  -0.00030
 164  O 2   g 2     -0.00000   0.00000  -0.00004   0.00004   0.00001  -0.00015
 165  O 2   g 3     -0.00000  -0.00000  -0.00000   0.00001   0.00000  -0.00041
 166  O 2   g 4     -0.00001  -0.00000  -0.00005   0.00005   0.00001  -0.00070
 167  O 2   g 5      0.00001  -0.00000   0.00004  -0.00000  -0.00000   0.00032
 168  O 2   g 6      0.00000   0.00000  -0.00001  -0.00000   0.00000   0.00001
 169  O 2   g 7      0.00001  -0.00000   0.00006  -0.00000  -0.00000   0.00040
 170  O 2   g 8      0.00002   0.00000   0.00000  -0.00003  -0.00000   0.00073
 171  O 2   g 9      0.00001   0.00000   0.00011   0.00000   0.00000  -0.00025
 172  O 2   h 1      0.00000   0.00000   0.00002   0.00000   0.00000  -0.00002
 173  O 2   h 2      0.00000   0.00000  -0.00001  -0.00001  -0.00000   0.00003
 174  O 2   h 3      0.00000  -0.00000   0.00005  -0.00000  -0.00000  -0.00005
 175  O 2   h 4      0.00000   0.00000  -0.00003  -0.00001  -0.00000   0.00011
 176  O 2   h 5      0.00000  -0.00000   0.00003  -0.00001  -0.00000   0.00001
 177  O 2   h 6     -0.00000   0.00000  -0.00001   0.00000   0.00000  -0.00002
 178  O 2   h 7     -0.00000   0.00000   0.00001   0.00000   0.00000  -0.00001
 179  O 2   h 8     -0.00000  -0.00000  -0.00002   0.00000   0.00000   0.00000
 180  O 2   h 9     -0.00000   0.00000   0.00002   0.00000   0.00000  -0.00011
 181  O 2   h10     -0.00000  -0.00000  -0.00004   0.00000  -0.00000   0.00006
 182  O 2   h11      0.00000   0.00000  -0.00006  -0.00000  -0.00000   0.00011
 183  H 1   s       -0.00000  -0.00000   0.00028   0.00055   0.00010  -0.02512
 184  H 1   s        0.00011   0.00001   0.00138   0.00081   0.00016  -0.05593
 185  H 1   s       -0.00037  -0.00005  -0.01236   0.00263   0.00051  -0.06448
 186  H 1   s       -0.00019   0.00002  -0.00247   0.00249   0.00031  -0.01939
 187  H 1   s        0.00023  -0.00004   0.00026   0.00092   0.00016  -0.00195
 188  H 1   px       0.00000   0.00000   0.00006   0.00000   0.00000  -0.00042
 189  H 1   py       0.00000  -0.00000  -0.00022  -0.00002  -0.00000   0.00186
 190  H 1   pz       0.00000  -0.00000   0.00008   0.00000   0.00000  -0.00050
 191  H 1   px       0.00000   0.00000  -0.00010   0.00000   0.00000  -0.00130
 192  H 1   py      -0.00005   0.00000   0.00038   0.00004  -0.00000   0.00575
 193  H 1   pz       0.00000  -0.00000  -0.00014   0.00002   0.00001  -0.00152
 194  H 1   px      -0.00013  -0.00003  -0.00241   0.00023   0.00002  -0.00116
 195  H 1   py       0.00027   0.00001   0.00868  -0.00089  -0.00016   0.00731
 196  H 1   pz      -0.00014   0.00002  -0.00328   0.00030   0.00004  -0.00072
 197  H 1   px      -0.00013  -0.00003  -0.00078   0.00012  -0.00002   0.00001
 198  H 1   py       0.00014   0.00003   0.00300  -0.00066  -0.00014   0.00317
 199  H 1   pz      -0.00012   0.00002  -0.00087   0.00010   0.00002   0.00111
 200  H 1   d 1     -0.00001  -0.00000  -0.00006  -0.00000  -0.00000   0.00028
 201  H 1   d 2     -0.00001   0.00000  -0.00008   0.00002   0.00000   0.00034
 202  H 1   d 3     -0.00000  -0.00000  -0.00004  -0.00001  -0.00000   0.00032
 203  H 1   d 4      0.00001  -0.00000   0.00003  -0.00000  -0.00000  -0.00008
 204  H 1   d 5     -0.00000  -0.00000  -0.00009  -0.00002  -0.00000   0.00057
 205  H 1   d 1      0.00005   0.00001   0.00116  -0.00007  -0.00001   0.00038
 206  H 1   d 2      0.00006  -0.00001   0.00160  -0.00017  -0.00003   0.00037
 207  H 1   d 3      0.00000   0.00000   0.00087   0.00001  -0.00000   0.00037
 208  H 1   d 4     -0.00003  -0.00000  -0.00050   0.00005   0.00001  -0.00017
 209  H 1   d 5      0.00001   0.00000   0.00192  -0.00002  -0.00001   0.00086
 210  H 1   d 1      0.00009   0.00002   0.00140  -0.00028  -0.00002   0.00017
 211  H 1   d 2      0.00010  -0.00001   0.00183  -0.00024  -0.00003  -0.00008
 212  H 1   d 3      0.00005   0.00001   0.00123  -0.00038  -0.00006   0.00047
 213  H 1   d 4     -0.00002  -0.00000  -0.00049   0.00007  -0.00000  -0.00009
 214  H 1   d 5      0.00010  -0.00001   0.00239  -0.00068  -0.00011   0.00082
 215  H 1   f 1      0.00000   0.00000  -0.00015   0.00001   0.00000  -0.00013
 216  H 1   f 2      0.00000   0.00000   0.00011  -0.00001  -0.00000   0.00005
 217  H 1   f 3      0.00000  -0.00000  -0.00006   0.00000   0.00000  -0.00008
 218  H 1   f 4      0.00000  -0.00000   0.00014  -0.00001  -0.00000   0.00008
 219  H 1   f 5     -0.00000   0.00000   0.00002   0.00000   0.00000   0.00003
 220  H 1   f 6      0.00000  -0.00000   0.00017  -0.00001  -0.00000   0.00009
 221  H 1   f 7      0.00000   0.00000   0.00016  -0.00001  -0.00000   0.00010
 222  H 1   f 1     -0.00001   0.00000  -0.00074  -0.00001   0.00001  -0.00021
 223  H 1   f 2      0.00003   0.00000   0.00049  -0.00006  -0.00001   0.00014
 224  H 1   f 3     -0.00000  -0.00000  -0.00036  -0.00005  -0.00000  -0.00009
 225  H 1   f 4      0.00003  -0.00000   0.00060  -0.00008  -0.00001   0.00012
 226  H 1   f 5      0.00001   0.00000   0.00004  -0.00000  -0.00000  -0.00003
 227  H 1   f 6      0.00003  -0.00000   0.00077  -0.00009  -0.00002   0.00016
 228  H 1   f 7      0.00004   0.00001   0.00075  -0.00003  -0.00000   0.00019
 229  H 1   g 1     -0.00000  -0.00000  -0.00009   0.00000   0.00000  -0.00008
 230  H 1   g 2     -0.00000   0.00000  -0.00007   0.00000   0.00000  -0.00006
 231  H 1   g 3      0.00000  -0.00000   0.00000  -0.00000  -0.00000  -0.00002
 232  H 1   g 4     -0.00000   0.00000  -0.00009   0.00001   0.00000  -0.00008
 233  H 1   g 5      0.00000  -0.00000   0.00000  -0.00001  -0.00000  -0.00001
 234  H 1   g 6      0.00000   0.00000   0.00002  -0.00000  -0.00000   0.00003
 235  H 1   g 7      0.00000  -0.00000  -0.00001  -0.00001  -0.00000  -0.00003
 236  H 1   g 8      0.00000   0.00000   0.00008  -0.00001  -0.00000   0.00005
 237  H 1   g 9      0.00000   0.00000  -0.00005  -0.00000   0.00000  -0.00006
 238  H 2   s       -0.00000   0.00000   0.00019   0.00031   0.00007  -0.02290
 239  H 2   s        0.00004  -0.00001   0.00162   0.00062   0.00015  -0.05173
 240  H 2   s       -0.00014   0.00002  -0.00896   0.00267   0.00034  -0.06199
 241  H 2   s       -0.00035   0.00006  -0.00129   0.00153   0.00009  -0.01943
 242  H 2   s       -0.00007   0.00001  -0.00029  -0.00023  -0.00005  -0.00244
 243  H 2   px      -0.00000   0.00000   0.00004   0.00000   0.00000  -0.00034
 244  H 2   py       0.00000  -0.00000   0.00013   0.00002   0.00000  -0.00128
 245  H 2   pz      -0.00000   0.00000   0.00014   0.00002   0.00000  -0.00117
 246  H 2   px       0.00001  -0.00000   0.00000   0.00001   0.00000  -0.00108
 247  H 2   py       0.00001  -0.00000  -0.00001   0.00005   0.00001  -0.00404
 248  H 2   pz       0.00002  -0.00000   0.00000   0.00003   0.00001  -0.00373
 249  H 2   px      -0.00003  -0.00000  -0.00172   0.00022   0.00003  -0.00102
 250  H 2   py      -0.00003   0.00001  -0.00488   0.00039   0.00003  -0.00607
 251  H 2   pz      -0.00009   0.00001  -0.00548   0.00064   0.00007  -0.00407
 252  H 2   px      -0.00003   0.00001  -0.00046   0.00026   0.00002   0.00017
 253  H 2   py      -0.00016   0.00003  -0.00137   0.00025  -0.00002  -0.00223
 254  H 2   pz      -0.00012   0.00002  -0.00149   0.00062   0.00004  -0.00030
 255  H 2   d 1      0.00000  -0.00000   0.00005   0.00000   0.00000  -0.00018
 256  H 2   d 2      0.00000  -0.00000   0.00017   0.00001   0.00000  -0.00061
 257  H 2   d 3      0.00000  -0.00000   0.00007  -0.00000  -0.00000  -0.00012
 258  H 2   d 4      0.00000   0.00000   0.00007  -0.00000  -0.00000  -0.00016
 259  H 2   d 5      0.00000   0.00000  -0.00007  -0.00000  -0.00000   0.00031
 260  H 2   d 1     -0.00000   0.00000  -0.00062   0.00001   0.00000  -0.00019
 261  H 2   d 2     -0.00000   0.00000  -0.00200   0.00003   0.00000  -0.00074
 262  H 2   d 3     -0.00001  -0.00000  -0.00079   0.00007   0.00001  -0.00017
 263  H 2   d 4     -0.00001  -0.00000  -0.00078   0.00006   0.00001  -0.00028
 264  H 2   d 5     -0.00001  -0.00000   0.00081  -0.00000   0.00000   0.00049
 265  H 2   d 1     -0.00002   0.00000  -0.00077   0.00007   0.00000  -0.00009
 266  H 2   d 2     -0.00006   0.00001  -0.00241   0.00011  -0.00000  -0.00062
 267  H 2   d 3     -0.00001  -0.00000  -0.00083   0.00018   0.00002   0.00022
 268  H 2   d 4     -0.00002   0.00000  -0.00080   0.00009   0.00001  -0.00007
 269  H 2   d 5      0.00003  -0.00001   0.00091   0.00010   0.00002   0.00069
 270  H 2   f 1     -0.00000  -0.00000   0.00004  -0.00000  -0.00000   0.00005
 271  H 2   f 2      0.00000  -0.00000  -0.00013   0.00001   0.00000  -0.00006
 272  H 2   f 3     -0.00000  -0.00000  -0.00020   0.00001   0.00000  -0.00008
 273  H 2   f 4     -0.00000   0.00000   0.00003   0.00000   0.00000   0.00004
 274  H 2   f 5     -0.00000  -0.00000  -0.00007   0.00000   0.00000  -0.00002
 275  H 2   f 6     -0.00000   0.00000   0.00015  -0.00000  -0.00000   0.00009
 276  H 2   f 7     -0.00000   0.00000   0.00006  -0.00000  -0.00000   0.00003
 277  H 2   f 1      0.00000  -0.00000   0.00020   0.00003   0.00001   0.00008
 278  H 2   f 2     -0.00001   0.00000  -0.00058   0.00001   0.00000  -0.00012
 279  H 2   f 3     -0.00001   0.00000  -0.00093   0.00003   0.00000  -0.00019
 280  H 2   f 4      0.00000  -0.00000   0.00016   0.00005   0.00001   0.00002
 281  H 2   f 5     -0.00000  -0.00000  -0.00039   0.00004   0.00001  -0.00014
 282  H 2   f 6      0.00001  -0.00000   0.00075   0.00004   0.00001   0.00018
 283  H 2   f 7      0.00000  -0.00000   0.00032   0.00000   0.00000   0.00007
 284  H 2   g 1      0.00000  -0.00000   0.00004   0.00000   0.00000   0.00002
 285  H 2   g 2      0.00000  -0.00000   0.00006   0.00000   0.00000   0.00003
 286  H 2   g 3     -0.00000  -0.00000  -0.00010   0.00001   0.00000  -0.00004
 287  H 2   g 4     -0.00000  -0.00000  -0.00006   0.00001   0.00000  -0.00001
 288  H 2   g 5      0.00000  -0.00000   0.00008   0.00000   0.00000   0.00004
 289  H 2   g 6     -0.00000   0.00000  -0.00003   0.00000   0.00000  -0.00000
 290  H 2   g 7      0.00000  -0.00000   0.00012   0.00000   0.00000   0.00005
 291  H 2   g 8      0.00000  -0.00000   0.00009  -0.00000   0.00000   0.00004
 292  H 2   g 9     -0.00000   0.00000  -0.00001  -0.00000  -0.00000  -0.00001
 293  H 3   s        0.00018   0.00000  -0.00000   0.02261   0.00298   0.00042
 294  H 3   s        0.00158  -0.00004  -0.00005   0.05144   0.00676   0.00099
 295  H 3   s       -0.00848   0.00035   0.00122   0.06178   0.00823   0.00089
 296  H 3   s       -0.00117  -0.00011   0.00056   0.01708   0.00189  -0.00006
 297  H 3   s       -0.00015   0.00007  -0.00001   0.00176   0.00037   0.00005
 298  H 3   px       0.00012   0.00000  -0.00000   0.00112   0.00015   0.00002
 299  H 3   py      -0.00003   0.00001   0.00000  -0.00021  -0.00003  -0.00000
 300  H 3   pz       0.00015  -0.00000   0.00000   0.00134   0.00018   0.00002
 301  H 3   px       0.00001  -0.00002  -0.00000   0.00362   0.00045   0.00008
 302  H 3   py      -0.00005  -0.00003  -0.00000  -0.00057  -0.00010  -0.00001
 303  H 3   pz      -0.00000   0.00000  -0.00001   0.00422   0.00056   0.00009
 304  H 3   px      -0.00455   0.00021   0.00029   0.00447   0.00059   0.00000
 305  H 3   py       0.00154   0.00016  -0.00014  -0.00004   0.00006   0.00001
 306  H 3   pz      -0.00533   0.00005   0.00034   0.00562   0.00073   0.00003
 307  H 3   px      -0.00129   0.00002   0.00022   0.00103  -0.00021  -0.00008
 308  H 3   py       0.00029   0.00006  -0.00021   0.00044  -0.00001  -0.00011
 309  H 3   pz      -0.00151  -0.00007   0.00022   0.00099   0.00008  -0.00013
 310  H 3   d 1     -0.00006  -0.00000   0.00000  -0.00008  -0.00002   0.00000
 311  H 3   d 2     -0.00007  -0.00000  -0.00000  -0.00012  -0.00001   0.00000
 312  H 3   d 3      0.00007   0.00000   0.00000   0.00026   0.00004   0.00000
 313  H 3   d 4      0.00018  -0.00001  -0.00000   0.00064   0.00008   0.00001
 314  H 3   d 5      0.00007  -0.00000   0.00000   0.00026   0.00003   0.00000
 315  H 3   d 1      0.00059   0.00002  -0.00003  -0.00013   0.00002  -0.00001
 316  H 3   d 2      0.00069   0.00003  -0.00002  -0.00008  -0.00001  -0.00002
 317  H 3   d 3     -0.00080  -0.00001   0.00001   0.00029   0.00003   0.00001
 318  H 3   d 4     -0.00200   0.00005   0.00005   0.00072   0.00010   0.00001
 319  H 3   d 5     -0.00072   0.00004   0.00000   0.00015   0.00003   0.00001
 320  H 3   d 1      0.00061   0.00005  -0.00004   0.00010  -0.00004  -0.00002
 321  H 3   d 2      0.00072   0.00006  -0.00006  -0.00003   0.00001  -0.00002
 322  H 3   d 3     -0.00096  -0.00005   0.00001   0.00025   0.00009  -0.00003
 323  H 3   d 4     -0.00230   0.00000   0.00004   0.00048   0.00002  -0.00002
 324  H 3   d 5     -0.00094   0.00004   0.00003   0.00011  -0.00003  -0.00004
 325  H 3   f 1      0.00006   0.00000   0.00000  -0.00002   0.00000  -0.00000
 326  H 3   f 2      0.00012   0.00000  -0.00001  -0.00002  -0.00000  -0.00000
 327  H 3   f 3      0.00007   0.00000  -0.00000  -0.00002  -0.00000  -0.00000
 328  H 3   f 4      0.00003  -0.00000  -0.00000  -0.00002  -0.00000   0.00000
 329  H 3   f 5     -0.00020   0.00000   0.00001   0.00011   0.00001   0.00000
 330  H 3   f 6     -0.00014   0.00001   0.00000   0.00007   0.00001   0.00000
 331  H 3   f 7     -0.00003   0.00000  -0.00000   0.00001   0.00000   0.00000
 332  H 3   f 1      0.00025   0.00001  -0.00001  -0.00005  -0.00002  -0.00001
 333  H 3   f 2      0.00056   0.00001  -0.00000  -0.00017  -0.00002  -0.00002
 334  H 3   f 3      0.00031   0.00001  -0.00001  -0.00006  -0.00001  -0.00001
 335  H 3   f 4      0.00013  -0.00002  -0.00000  -0.00002   0.00001  -0.00001
 336  H 3   f 5     -0.00100  -0.00001  -0.00000   0.00016   0.00003  -0.00000
 337  H 3   f 6     -0.00074   0.00001  -0.00001   0.00006   0.00000  -0.00000
 338  H 3   f 7     -0.00018  -0.00000   0.00000  -0.00003  -0.00000  -0.00001
 339  H 3   g 1      0.00002  -0.00000  -0.00000  -0.00001  -0.00000  -0.00000
 340  H 3   g 2      0.00008   0.00000  -0.00000  -0.00003  -0.00000  -0.00000
 341  H 3   g 3      0.00010   0.00000  -0.00000  -0.00003  -0.00000  -0.00000
 342  H 3   g 4      0.00002   0.00000  -0.00000  -0.00001  -0.00000  -0.00000
 343  H 3   g 5      0.00008  -0.00000  -0.00000  -0.00003  -0.00000  -0.00000
 344  H 3   g 6     -0.00007  -0.00000   0.00000   0.00003   0.00001  -0.00000
 345  H 3   g 7     -0.00013   0.00000   0.00000   0.00005   0.00001  -0.00000
 346  H 3   g 8     -0.00005   0.00000   0.00000   0.00002   0.00000  -0.00000
 347  H 3   g 9     -0.00001  -0.00000  -0.00000   0.00000  -0.00000  -0.00000
 348  H 4   s        0.00022   0.00000  -0.00000   0.02404   0.00290   0.00048
 349  H 4   s        0.00155  -0.00011   0.00002   0.05411   0.00659   0.00107
 350  H 4   s       -0.01076   0.00065  -0.00027   0.06214   0.00706   0.00109
 351  H 4   s       -0.00227   0.00047  -0.00066   0.01859   0.00120   0.00041
 352  H 4   s       -0.00021  -0.00004  -0.00006   0.00172   0.00032  -0.00009
 353  H 4   px      -0.00006  -0.00000  -0.00000  -0.00054  -0.00009  -0.00001
 354  H 4   py      -0.00020   0.00000   0.00000  -0.00160  -0.00022  -0.00003
 355  H 4   pz      -0.00008  -0.00000   0.00000  -0.00079  -0.00009  -0.00002
 356  H 4   px       0.00008   0.00002   0.00001  -0.00175  -0.00022  -0.00003
 357  H 4   py       0.00015   0.00001  -0.00001  -0.00500  -0.00060  -0.00008
 358  H 4   pz       0.00006   0.00003   0.00000  -0.00244  -0.00029  -0.00004
 359  H 4   px       0.00199  -0.00013  -0.00013  -0.00260  -0.00044   0.00004
 360  H 4   py       0.00770  -0.00027   0.00007  -0.00550  -0.00076  -0.00004
 361  H 4   pz       0.00297  -0.00027  -0.00010  -0.00351  -0.00038   0.00002
 362  H 4   px       0.00087  -0.00005   0.00011  -0.00029  -0.00064   0.00013
 363  H 4   py       0.00253  -0.00026   0.00012  -0.00105  -0.00037  -0.00017
 364  H 4   pz       0.00085  -0.00019   0.00005  -0.00199   0.00001   0.00002
 365  H 4   d 1      0.00007  -0.00001  -0.00001   0.00032   0.00004   0.00001
 366  H 4   d 2      0.00010  -0.00000  -0.00000   0.00049   0.00006   0.00001
 367  H 4   d 3     -0.00007  -0.00001  -0.00000  -0.00017  -0.00002  -0.00000
 368  H 4   d 4      0.00001  -0.00001  -0.00000   0.00017   0.00003   0.00001
 369  H 4   d 5     -0.00014   0.00001  -0.00001  -0.00045  -0.00006  -0.00001
 370  H 4   d 1     -0.00101   0.00003   0.00006   0.00045   0.00003  -0.00001
 371  H 4   d 2     -0.00146   0.00005   0.00003   0.00043   0.00007  -0.00001
 372  H 4   d 3      0.00087   0.00004   0.00002  -0.00033  -0.00002  -0.00001
 373  H 4   d 4     -0.00036   0.00003   0.00002   0.00031   0.00002  -0.00002
 374  H 4   d 5      0.00182  -0.00005   0.00004  -0.00052  -0.00004  -0.00001
 375  H 4   d 1     -0.00127   0.00003   0.00001   0.00046  -0.00012  -0.00006
 376  H 4   d 2     -0.00180   0.00013   0.00006   0.00063   0.00024  -0.00002
 377  H 4   d 3      0.00105  -0.00006   0.00001   0.00009   0.00008  -0.00003
 378  H 4   d 4     -0.00054   0.00006   0.00006   0.00023   0.00027  -0.00004
 379  H 4   d 5      0.00213  -0.00005  -0.00002  -0.00036  -0.00015  -0.00008
 380  H 4   f 1     -0.00015   0.00000  -0.00001   0.00006   0.00001   0.00000
 381  H 4   f 2      0.00009  -0.00000  -0.00000  -0.00007  -0.00001  -0.00000
 382  H 4   f 3     -0.00007  -0.00000  -0.00001   0.00002   0.00000   0.00000
 383  H 4   f 4     -0.00013  -0.00000  -0.00000   0.00008   0.00001   0.00000
 384  H 4   f 5     -0.00002   0.00001   0.00000  -0.00001   0.00000  -0.00000
 385  H 4   f 6     -0.00016   0.00001  -0.00000   0.00008   0.00000  -0.00000
 386  H 4   f 7     -0.00014   0.00000   0.00000   0.00009   0.00001   0.00000
 387  H 4   f 1     -0.00072   0.00001  -0.00001   0.00022   0.00001   0.00003
 388  H 4   f 2      0.00049  -0.00002  -0.00003  -0.00016   0.00001   0.00002
 389  H 4   f 3     -0.00033  -0.00000  -0.00001   0.00013  -0.00001   0.00002
 390  H 4   f 4     -0.00063   0.00005   0.00002   0.00014  -0.00001  -0.00000
 391  H 4   f 5     -0.00007  -0.00003  -0.00001   0.00006  -0.00003   0.00001
 392  H 4   f 6     -0.00078   0.00002   0.00001   0.00013   0.00005   0.00001
 393  H 4   f 7     -0.00068   0.00001   0.00001   0.00016  -0.00001  -0.00001
 394  H 4   g 1      0.00009  -0.00000   0.00000  -0.00006  -0.00001  -0.00000
 395  H 4   g 2      0.00009  -0.00000   0.00000  -0.00005  -0.00000  -0.00000
 396  H 4   g 3      0.00001   0.00000   0.00000   0.00001   0.00000  -0.00000
 397  H 4   g 4      0.00011  -0.00000   0.00000  -0.00006  -0.00001  -0.00000
 398  H 4   g 5     -0.00000  -0.00000  -0.00000  -0.00001  -0.00000   0.00000
 399  H 4   g 6      0.00003   0.00000  -0.00000  -0.00002  -0.00000  -0.00000
 400  H 4   g 7     -0.00001  -0.00000  -0.00000   0.00000  -0.00000   0.00000
 401  H 4   g 8      0.00009  -0.00000  -0.00000  -0.00006  -0.00001  -0.00000
 402  H 4   g 9     -0.00007  -0.00000  -0.00000   0.00002   0.00000   0.00000
 403  O 3   s        0.00001   0.97838   0.00000  -0.00229   0.01865   0.00002
 404  O 3   s       -0.00000   0.03080   0.00000   0.03444  -0.28166  -0.00037
 405  O 3   s       -0.00001   0.08496   0.00000   0.00096  -0.00759  -0.00001
 406  O 3   s        0.00001  -0.01529   0.00000   0.03938  -0.32377  -0.00042
 407  O 3   s        0.00008  -0.01498  -0.00008   0.05304  -0.43282  -0.00061
 408  O 3   s        0.00013  -0.00200  -0.00004   0.02097  -0.15798  -0.00023
 409  O 3   px       0.00000  -0.00055   0.00000  -0.00140   0.00951   0.00001
 410  O 3   py      -0.00000  -0.00096   0.00000  -0.00267   0.02097   0.00003
 411  O 3   pz      -0.00000   0.00060   0.00000   0.00175  -0.01413  -0.00002
 412  O 3   px       0.00000  -0.00029  -0.00000  -0.00228   0.01548   0.00001
 413  O 3   py       0.00000  -0.00062  -0.00000  -0.00435   0.03413   0.00004
 414  O 3   pz      -0.00000   0.00039  -0.00000   0.00285  -0.02301  -0.00003
 415  O 3   px      -0.00010   0.00318   0.00002  -0.00372   0.02675   0.00006
 416  O 3   py      -0.00002   0.00788   0.00002  -0.00717   0.05663   0.00007
 417  O 3   pz      -0.00004  -0.00541   0.00001   0.00469  -0.03755  -0.00002
 418  O 3   px       0.00002  -0.00043   0.00008  -0.00361   0.01853   0.00013
 419  O 3   py      -0.00002   0.00078   0.00004  -0.00568   0.03764   0.00009
 420  O 3   pz       0.00020  -0.00084   0.00005   0.00345  -0.02451   0.00007
 421  O 3   px       0.00001  -0.00013   0.00001  -0.00067   0.00177   0.00004
 422  O 3   py      -0.00001   0.00003  -0.00000  -0.00075   0.00350  -0.00001
 423  O 3   pz       0.00005  -0.00008   0.00002   0.00023  -0.00248   0.00004
 424  O 3   d 1     -0.00000   0.00007  -0.00000   0.00002  -0.00011  -0.00000
 425  O 3   d 2     -0.00000  -0.00019  -0.00000  -0.00004   0.00033   0.00000
 426  O 3   d 3      0.00000  -0.00004   0.00000  -0.00001   0.00003   0.00000
 427  O 3   d 4     -0.00000   0.00016   0.00000   0.00001  -0.00010  -0.00000
 428  O 3   d 5     -0.00000   0.00008   0.00000  -0.00000   0.00003   0.00000
 429  O 3   d 1      0.00001  -0.00012   0.00000   0.00008  -0.00068   0.00000
 430  O 3   d 2      0.00001   0.00035   0.00000  -0.00025   0.00202   0.00000
 431  O 3   d 3     -0.00001   0.00006  -0.00000  -0.00004   0.00027  -0.00000
 432  O 3   d 4      0.00000  -0.00026  -0.00000   0.00016  -0.00122  -0.00000
 433  O 3   d 5      0.00001  -0.00012  -0.00000   0.00007  -0.00042  -0.00000
 434  O 3   d 1      0.00000  -0.00040  -0.00002   0.00062  -0.00371  -0.00003
 435  O 3   d 2     -0.00003   0.00210  -0.00001  -0.00114   0.00884  -0.00000
 436  O 3   d 3     -0.00000   0.00022   0.00001  -0.00026   0.00166   0.00002
 437  O 3   d 4     -0.00003  -0.00186   0.00000   0.00050  -0.00507  -0.00000
 438  O 3   d 5     -0.00001  -0.00074  -0.00000   0.00021  -0.00186  -0.00001
 439  O 3   d 1     -0.00003   0.00054  -0.00003   0.00087  -0.00203  -0.00005
 440  O 3   d 2     -0.00008  -0.00044  -0.00002  -0.00074   0.00481  -0.00003
 441  O 3   d 3      0.00008  -0.00026   0.00002  -0.00047   0.00090   0.00004
 442  O 3   d 4     -0.00007  -0.00002   0.00000  -0.00009  -0.00282   0.00000
 443  O 3   d 5     -0.00004   0.00010   0.00001   0.00004  -0.00116   0.00001
 444  O 3   f 1     -0.00000  -0.00008  -0.00000  -0.00000   0.00001  -0.00000
 445  O 3   f 2     -0.00000  -0.00009   0.00000  -0.00001   0.00006   0.00000
 446  O 3   f 3      0.00000  -0.00006   0.00000  -0.00000   0.00004   0.00000
 447  O 3   f 4      0.00000   0.00000   0.00000   0.00000  -0.00001  -0.00000
 448  O 3   f 5     -0.00000   0.00010   0.00000   0.00001  -0.00003   0.00000
 449  O 3   f 6     -0.00000  -0.00006  -0.00000  -0.00000   0.00002   0.00000
 450  O 3   f 7      0.00000  -0.00006   0.00000  -0.00001   0.00004   0.00000
 451  O 3   f 1      0.00000   0.00060   0.00000  -0.00017   0.00127   0.00000
 452  O 3   f 2      0.00000   0.00071  -0.00000  -0.00014   0.00120   0.00000
 453  O 3   f 3      0.00000   0.00043  -0.00000  -0.00011   0.00090  -0.00000
 454  O 3   f 4     -0.00001  -0.00001  -0.00000  -0.00002   0.00014  -0.00000
 455  O 3   f 5      0.00001  -0.00077  -0.00000   0.00019  -0.00160  -0.00000
 456  O 3   f 6      0.00000   0.00051   0.00000  -0.00015   0.00120   0.00000
 457  O 3   f 7     -0.00000   0.00045  -0.00000  -0.00009   0.00071   0.00000
 458  O 3   f 1      0.00002  -0.00024   0.00001  -0.00027   0.00162   0.00001
 459  O 3   f 2      0.00002  -0.00000  -0.00000  -0.00004   0.00154   0.00000
 460  O 3   f 3     -0.00004  -0.00005  -0.00001  -0.00004   0.00113  -0.00001
 461  O 3   f 4     -0.00001  -0.00006  -0.00000  -0.00012   0.00015  -0.00000
 462  O 3   f 5     -0.00003   0.00022   0.00000   0.00031  -0.00208  -0.00000
 463  O 3   f 6     -0.00002  -0.00020  -0.00000  -0.00016   0.00157   0.00000
 464  O 3   f 7     -0.00000  -0.00001  -0.00001   0.00002   0.00094  -0.00001
 465  O 3   g 1      0.00000  -0.00009  -0.00000   0.00002  -0.00012  -0.00000
 466  O 3   g 2      0.00000  -0.00003  -0.00000   0.00001  -0.00005  -0.00000
 467  O 3   g 3     -0.00000   0.00011   0.00000  -0.00002   0.00015   0.00000
 468  O 3   g 4      0.00000   0.00004   0.00000  -0.00001   0.00006   0.00000
 469  O 3   g 5      0.00000   0.00001   0.00000  -0.00000   0.00002  -0.00000
 470  O 3   g 6      0.00000   0.00001  -0.00000  -0.00000   0.00001   0.00000
 471  O 3   g 7      0.00000   0.00008   0.00000  -0.00002   0.00012   0.00000
 472  O 3   g 8      0.00000   0.00004   0.00000  -0.00001   0.00009  -0.00000
 473  O 3   g 9      0.00000   0.00002  -0.00000  -0.00000   0.00003  -0.00000
 474  O 3   g 1     -0.00000  -0.00006   0.00000   0.00009  -0.00073  -0.00000
 475  O 3   g 2     -0.00000  -0.00001  -0.00000   0.00003  -0.00031  -0.00000
 476  O 3   g 3      0.00000   0.00011   0.00000  -0.00012   0.00084   0.00000
 477  O 3   g 4     -0.00000   0.00006  -0.00000  -0.00002   0.00027  -0.00000
 478  O 3   g 5     -0.00000   0.00004  -0.00000   0.00000   0.00006  -0.00000
 479  O 3   g 6      0.00000   0.00001   0.00000   0.00002   0.00001   0.00000
 480  O 3   g 7     -0.00001   0.00005  -0.00000  -0.00009   0.00076   0.00000
 481  O 3   g 8     -0.00000   0.00011  -0.00000  -0.00003   0.00037   0.00000
 482  O 3   g 9      0.00000  -0.00000   0.00000  -0.00004   0.00020   0.00000
 483  O 3   h 1      0.00000   0.00003  -0.00000  -0.00001   0.00008   0.00000
 484  O 3   h 2      0.00000  -0.00002   0.00000   0.00000  -0.00004   0.00000
 485  O 3   h 3      0.00000  -0.00003  -0.00000   0.00002  -0.00014  -0.00000
 486  O 3   h 4     -0.00000   0.00003  -0.00000  -0.00001   0.00005  -0.00000
 487  O 3   h 5     -0.00000  -0.00000   0.00000  -0.00000   0.00000   0.00000
 488  O 3   h 6     -0.00000   0.00006   0.00000  -0.00001   0.00010   0.00000
 489  O 3   h 7     -0.00000   0.00003   0.00000  -0.00001   0.00009   0.00000
 490  O 3   h 8     -0.00000   0.00001  -0.00000  -0.00001   0.00005  -0.00000
 491  O 3   h 9      0.00000   0.00006  -0.00000  -0.00001   0.00010   0.00000
 492  O 3   h10      0.00000   0.00001  -0.00000   0.00000  -0.00000  -0.00000
 493  O 3   h11     -0.00000  -0.00003  -0.00000   0.00002  -0.00011  -0.00000
 494  H 5   s       -0.00000  -0.00016   0.00000   0.00308  -0.02231  -0.00002
 495  H 5   s        0.00002  -0.00143  -0.00001   0.00680  -0.05052  -0.00007
 496  H 5   s        0.00014   0.00759   0.00013   0.00834  -0.06210   0.00011
 497  H 5   s       -0.00007   0.00085   0.00009   0.00217  -0.01995   0.00007
 498  H 5   s        0.00004   0.00001   0.00001  -0.00010  -0.00225   0.00006
 499  H 5   px      -0.00000  -0.00017  -0.00000   0.00017  -0.00159  -0.00000
 500  H 5   py      -0.00000  -0.00007  -0.00000   0.00006  -0.00060  -0.00000
 501  H 5   pz       0.00000  -0.00003  -0.00000   0.00006  -0.00034  -0.00000
 502  H 5   px       0.00001  -0.00001  -0.00000   0.00066  -0.00511  -0.00001
 503  H 5   py       0.00002  -0.00005   0.00000   0.00022  -0.00190  -0.00000
 504  H 5   pz      -0.00000   0.00005  -0.00000   0.00015  -0.00107  -0.00000
 505  H 5   px      -0.00003   0.00599   0.00006   0.00034  -0.00696   0.00005
 506  H 5   py      -0.00007   0.00295  -0.00000   0.00011  -0.00192  -0.00001
 507  H 5   pz       0.00001   0.00054   0.00001   0.00027  -0.00229   0.00001
 508  H 5   px       0.00005   0.00158   0.00010  -0.00077  -0.00213   0.00011
 509  H 5   py       0.00001   0.00084   0.00001  -0.00023  -0.00058   0.00002
 510  H 5   pz      -0.00013   0.00003   0.00002   0.00007  -0.00176  -0.00001
 511  H 5   d 1      0.00000  -0.00016  -0.00000   0.00005  -0.00039  -0.00000
 512  H 5   d 2      0.00001  -0.00003   0.00000   0.00001  -0.00009   0.00000
 513  H 5   d 3     -0.00001   0.00012   0.00000  -0.00004   0.00031   0.00000
 514  H 5   d 4      0.00001  -0.00002  -0.00000   0.00003  -0.00024  -0.00000
 515  H 5   d 5      0.00000  -0.00012  -0.00000   0.00006  -0.00047  -0.00000
 516  H 5   d 1     -0.00000   0.00155   0.00001   0.00011  -0.00055   0.00001
 517  H 5   d 2     -0.00004   0.00025  -0.00000  -0.00000   0.00007  -0.00000
 518  H 5   d 3      0.00002  -0.00114  -0.00001  -0.00008   0.00047  -0.00000
 519  H 5   d 4     -0.00003   0.00036   0.00000  -0.00001  -0.00024   0.00000
 520  H 5   d 5     -0.00000   0.00130   0.00001   0.00005  -0.00053   0.00001
 521  H 5   d 1     -0.00007   0.00179  -0.00001   0.00039  -0.00029  -0.00000
 522  H 5   d 2      0.00003   0.00023   0.00000  -0.00025  -0.00013   0.00000
 523  H 5   d 3     -0.00002  -0.00133  -0.00001  -0.00003  -0.00002  -0.00002
 524  H 5   d 4      0.00004   0.00037   0.00001  -0.00038  -0.00058   0.00000
 525  H 5   d 5     -0.00002   0.00147   0.00004  -0.00001  -0.00074   0.00004
 526  H 5   f 1     -0.00000   0.00021   0.00000   0.00002  -0.00009   0.00000
 527  H 5   f 2      0.00000   0.00006   0.00000  -0.00000  -0.00002   0.00000
 528  H 5   f 3     -0.00000  -0.00006  -0.00000   0.00000   0.00003  -0.00000
 529  H 5   f 4     -0.00000  -0.00004  -0.00000  -0.00000   0.00004  -0.00000
 530  H 5   f 5     -0.00001  -0.00016  -0.00000  -0.00001   0.00006  -0.00000
 531  H 5   f 6     -0.00000   0.00003  -0.00000   0.00001  -0.00005  -0.00000
 532  H 5   f 7      0.00000   0.00006   0.00000   0.00000  -0.00005   0.00000
 533  H 5   f 1     -0.00002   0.00107  -0.00000   0.00004  -0.00027   0.00000
 534  H 5   f 2     -0.00003   0.00025  -0.00000   0.00005   0.00003   0.00000
 535  H 5   f 3      0.00002  -0.00035  -0.00000  -0.00007   0.00012   0.00000
 536  H 5   f 4      0.00002  -0.00025  -0.00000   0.00000  -0.00002  -0.00000
 537  H 5   f 5      0.00003  -0.00075  -0.00000  -0.00006   0.00016  -0.00000
 538  H 5   f 6     -0.00001   0.00018   0.00001  -0.00004  -0.00008   0.00000
 539  H 5   f 7      0.00000   0.00032   0.00001  -0.00001  -0.00001   0.00001
 540  H 5   g 1     -0.00000   0.00016   0.00000   0.00001  -0.00006   0.00000
 541  H 5   g 2     -0.00000   0.00006  -0.00000  -0.00000  -0.00001   0.00000
 542  H 5   g 3     -0.00000  -0.00009  -0.00000  -0.00001   0.00004  -0.00000
 543  H 5   g 4      0.00000  -0.00002  -0.00000  -0.00000   0.00001  -0.00000
 544  H 5   g 5      0.00000   0.00007   0.00000   0.00000  -0.00002   0.00000
 545  H 5   g 6      0.00000  -0.00005  -0.00000   0.00000   0.00002  -0.00000
 546  H 5   g 7      0.00000  -0.00009  -0.00000  -0.00000   0.00002  -0.00000
 547  H 5   g 8      0.00000   0.00001   0.00000  -0.00000  -0.00002   0.00000
 548  H 5   g 9      0.00000  -0.00003   0.00000  -0.00001   0.00001   0.00000
 549  H 6   s        0.00000  -0.00033   0.00000   0.00329  -0.02670  -0.00003
 550  H 6   s       -0.00004  -0.00058  -0.00001   0.00729  -0.05890  -0.00007
 551  H 6   s       -0.00003   0.01149  -0.00004   0.00834  -0.06786  -0.00023
 552  H 6   s       -0.00024   0.00212  -0.00009   0.00234  -0.02072  -0.00013
 553  H 6   s        0.00000   0.00021   0.00001   0.00046  -0.00173  -0.00003
 554  H 6   px      -0.00000   0.00008  -0.00000  -0.00011   0.00084   0.00000
 555  H 6   py       0.00000  -0.00016  -0.00000   0.00014  -0.00120  -0.00000
 556  H 6   pz       0.00000   0.00019  -0.00000  -0.00018   0.00154   0.00000
 557  H 6   px       0.00001  -0.00028   0.00000  -0.00034   0.00248   0.00000
 558  H 6   py      -0.00001   0.00045  -0.00000   0.00042  -0.00342  -0.00001
 559  H 6   pz       0.00001  -0.00056   0.00000  -0.00057   0.00444   0.00001
 560  H 6   px       0.00005  -0.00254   0.00000  -0.00036   0.00380   0.00002
 561  H 6   py       0.00003   0.00558  -0.00001   0.00051  -0.00412  -0.00004
 562  H 6   pz      -0.00001  -0.00650   0.00000  -0.00063   0.00577   0.00003
 563  H 6   px       0.00016  -0.00082   0.00002  -0.00016   0.00179   0.00002
 564  H 6   py      -0.00006   0.00169  -0.00001   0.00007  -0.00103  -0.00007
 565  H 6   pz       0.00001  -0.00202   0.00002   0.00008   0.00116   0.00004
 566  H 6   d 1      0.00000   0.00003  -0.00000  -0.00004   0.00033   0.00000
 567  H 6   d 2      0.00001   0.00006   0.00000  -0.00008   0.00059   0.00000
 568  H 6   d 3      0.00000  -0.00003   0.00000   0.00003  -0.00023  -0.00000
 569  H 6   d 4      0.00000  -0.00001  -0.00000   0.00005  -0.00042  -0.00000
 570  H 6   d 5     -0.00001   0.00004  -0.00000  -0.00001   0.00009  -0.00000
 571  H 6   d 1      0.00000  -0.00096   0.00000  -0.00004   0.00024   0.00000
 572  H 6   d 2     -0.00002  -0.00217  -0.00000  -0.00010   0.00094   0.00001
 573  H 6   d 3     -0.00001   0.00086  -0.00000   0.00005  -0.00029  -0.00000
 574  H 6   d 4     -0.00002   0.00104   0.00000   0.00007  -0.00051  -0.00000
 575  H 6   d 5      0.00001  -0.00075   0.00000  -0.00003   0.00024   0.00000
 576  H 6   d 1      0.00005  -0.00104  -0.00000   0.00005   0.00048   0.00001
 577  H 6   d 2     -0.00002  -0.00248   0.00000  -0.00014   0.00087   0.00002
 578  H 6   d 3      0.00005   0.00095   0.00001  -0.00003  -0.00021   0.00001
 579  H 6   d 4     -0.00002   0.00128   0.00000  -0.00013  -0.00050   0.00000
 580  H 6   d 5     -0.00009  -0.00076  -0.00001  -0.00004  -0.00004   0.00001
 581  H 6   f 1      0.00000  -0.00001  -0.00000   0.00000  -0.00000   0.00000
 582  H 6   f 2      0.00000   0.00016  -0.00000   0.00002  -0.00015  -0.00000
 583  H 6   f 3     -0.00000   0.00019  -0.00000   0.00002  -0.00017  -0.00000
 584  H 6   f 4     -0.00000   0.00003   0.00000   0.00001  -0.00006  -0.00000
 585  H 6   f 5      0.00000  -0.00010   0.00000  -0.00001   0.00010   0.00000
 586  H 6   f 6      0.00000   0.00015  -0.00000   0.00001  -0.00007  -0.00000
 587  H 6   f 7     -0.00000   0.00009  -0.00000   0.00001  -0.00005  -0.00000
 588  H 6   f 1     -0.00002  -0.00006   0.00000  -0.00002   0.00007   0.00000
 589  H 6   f 2     -0.00001   0.00078   0.00000   0.00002  -0.00021  -0.00000
 590  H 6   f 3      0.00001   0.00089   0.00000   0.00005  -0.00036  -0.00000
 591  H 6   f 4     -0.00000   0.00019  -0.00000  -0.00001  -0.00011  -0.00000
 592  H 6   f 5     -0.00001  -0.00046  -0.00000   0.00002   0.00011  -0.00000
 593  H 6   f 6      0.00002   0.00053   0.00000   0.00006  -0.00031  -0.00000
 594  H 6   f 7      0.00001   0.00035   0.00000   0.00001  -0.00007  -0.00000
 595  H 6   g 1      0.00000   0.00002   0.00000   0.00000  -0.00002  -0.00000
 596  H 6   g 2      0.00000   0.00001  -0.00000   0.00000  -0.00001  -0.00000
 597  H 6   g 3     -0.00000  -0.00008  -0.00000  -0.00001   0.00012   0.00000
 598  H 6   g 4      0.00000  -0.00003  -0.00000  -0.00001   0.00005  -0.00000
 599  H 6   g 5     -0.00000  -0.00005  -0.00000  -0.00001   0.00008   0.00000
 600  H 6   g 6      0.00000   0.00002   0.00000   0.00000  -0.00002   0.00000
 601  H 6   g 7     -0.00000  -0.00006  -0.00000  -0.00001   0.00007   0.00000
 602  H 6   g 8     -0.00000  -0.00006  -0.00000  -0.00001   0.00008   0.00000
 603  H 6   g 9      0.00000  -0.00001  -0.00000  -0.00000   0.00001  -0.00000
                         7         8         9        10        11        12
 eigenvalues:         -0.569    -0.538    -0.534    -0.431    -0.418    -0.378
   1  O 1   s        0.00016   0.00008   0.00022  -0.00265  -0.00059  -0.00033
   2  O 1   s       -0.00394  -0.00315  -0.00648   0.10677   0.02486   0.00987
   3  O 1   s       -0.00011  -0.00014  -0.00025   0.00457   0.00110   0.00019
   4  O 1   s       -0.00466  -0.00425  -0.00748   0.12656   0.02885   0.01093
   5  O 1   s       -0.00513  -0.00023  -0.01163   0.16807   0.04340   0.03095
   6  O 1   s       -0.00111  -0.00624  -0.01086   0.19382   0.07462   0.06238
   7  O 1   px       0.06404  -0.00514  -0.00157   0.03601   0.02131  -0.00011
   8  O 1   py       0.05292   0.00396   0.00045  -0.10479  -0.03465  -0.00866
   9  O 1   pz       0.07998  -0.00555  -0.00580   0.04165  -0.00173   0.00410
  10  O 1   px       0.10478  -0.00843  -0.00248   0.05970   0.03513  -0.00017
  11  O 1   py       0.08665   0.00653   0.00085  -0.17384  -0.05768  -0.01479
  12  O 1   pz       0.13082  -0.00908  -0.00947   0.06873  -0.00321   0.00672
  13  O 1   px       0.15722  -0.01254  -0.00437   0.08637   0.05221  -0.00006
  14  O 1   py       0.12948   0.00981   0.00040  -0.25039  -0.08166  -0.01758
  15  O 1   pz       0.19636  -0.01358  -0.01452   0.10062  -0.00241   0.01044
  16  O 1   px       0.12258  -0.01162  -0.00241   0.07929   0.04967   0.00846
  17  O 1   py       0.10291   0.00879  -0.00046  -0.19412  -0.05157  -0.00069
  18  O 1   pz       0.15364  -0.01238  -0.01231   0.08559   0.01052   0.01843
  19  O 1   px       0.03331  -0.00412  -0.00086   0.03552   0.03520   0.00280
  20  O 1   py       0.02972   0.00431   0.00045  -0.11439  -0.02963   0.01554
  21  O 1   pz       0.04124  -0.00406  -0.00382   0.04491  -0.00334   0.01530
  22  O 1   d 1      0.00058  -0.00004  -0.00002   0.00028   0.00013   0.00002
  23  O 1   d 2      0.00078  -0.00004  -0.00005   0.00023   0.00001   0.00002
  24  O 1   d 3     -0.00062   0.00002   0.00002   0.00020   0.00008   0.00003
  25  O 1   d 4     -0.00060   0.00005   0.00002  -0.00043  -0.00011  -0.00004
  26  O 1   d 5     -0.00092   0.00001   0.00001   0.00048   0.00016   0.00007
  27  O 1   d 1      0.00232  -0.00013  -0.00004   0.00107   0.00063  -0.00006
  28  O 1   d 2      0.00301  -0.00019  -0.00022   0.00150  -0.00017   0.00003
  29  O 1   d 3     -0.00248   0.00011   0.00009   0.00100   0.00071   0.00011
  30  O 1   d 4     -0.00241   0.00020   0.00009  -0.00177  -0.00061  -0.00005
  31  O 1   d 5     -0.00354   0.00013   0.00005   0.00246   0.00090   0.00031
  32  O 1   d 1      0.00986  -0.00061  -0.00042   0.00466   0.00276   0.00121
  33  O 1   d 2      0.01318  -0.00062  -0.00118   0.00385   0.00134   0.00149
  34  O 1   d 3     -0.01055   0.00024   0.00057   0.00235  -0.00020  -0.00007
  35  O 1   d 4     -0.01045   0.00104   0.00042  -0.00567  -0.00188   0.00009
  36  O 1   d 5     -0.01559   0.00004   0.00057   0.00593   0.00121  -0.00025
  37  O 1   d 1      0.00638  -0.00020   0.00019   0.00211   0.00617   0.00345
  38  O 1   d 2      0.00801  -0.00042  -0.00120   0.00342   0.00409   0.00475
  39  O 1   d 3     -0.00713   0.00106   0.00067  -0.00428  -0.00532  -0.00304
  40  O 1   d 4     -0.00672   0.00107  -0.00006  -0.00729  -0.00443  -0.00094
  41  O 1   d 5     -0.00950   0.00105   0.00035  -0.00064  -0.00332  -0.00476
  42  O 1   f 1     -0.00005  -0.00000   0.00000   0.00007   0.00004   0.00000
  43  O 1   f 2      0.00002   0.00001  -0.00001  -0.00010  -0.00003  -0.00000
  44  O 1   f 3     -0.00003  -0.00000  -0.00000   0.00002   0.00001   0.00000
  45  O 1   f 4     -0.00006   0.00000   0.00000   0.00003  -0.00000   0.00001
  46  O 1   f 5      0.00006  -0.00000   0.00000   0.00008  -0.00001   0.00003
  47  O 1   f 6     -0.00002  -0.00000  -0.00000   0.00010   0.00006   0.00001
  48  O 1   f 7     -0.00004   0.00001  -0.00001   0.00005   0.00001   0.00002
  49  O 1   f 1     -0.00119  -0.00002   0.00006   0.00075   0.00020   0.00001
  50  O 1   f 2      0.00101   0.00005  -0.00000  -0.00142  -0.00050  -0.00008
  51  O 1   f 3     -0.00045  -0.00000   0.00002   0.00023  -0.00008  -0.00000
  52  O 1   f 4     -0.00161   0.00004   0.00007   0.00006  -0.00000  -0.00006
  53  O 1   f 5      0.00253  -0.00021  -0.00018   0.00130   0.00029  -0.00004
  54  O 1   f 6      0.00030  -0.00015   0.00003   0.00124   0.00052  -0.00009
  55  O 1   f 7     -0.00109  -0.00002   0.00005   0.00037   0.00004  -0.00010
  56  O 1   f 1     -0.00190  -0.00033   0.00018   0.00066  -0.00034  -0.00096
  57  O 1   f 2      0.00120  -0.00008  -0.00013  -0.00107  -0.00106  -0.00037
  58  O 1   f 3     -0.00083  -0.00026   0.00004  -0.00036  -0.00125  -0.00085
  59  O 1   f 4     -0.00226   0.00007   0.00007   0.00018   0.00029  -0.00051
  60  O 1   f 5      0.00323  -0.00037  -0.00016   0.00135   0.00078   0.00017
  61  O 1   f 6      0.00010  -0.00023   0.00032   0.00143  -0.00018  -0.00043
  62  O 1   f 7     -0.00158   0.00017   0.00003   0.00003  -0.00120  -0.00047
  63  O 1   g 1     -0.00007  -0.00000   0.00000   0.00006   0.00003  -0.00000
  64  O 1   g 2     -0.00003  -0.00001  -0.00000   0.00013   0.00005  -0.00001
  65  O 1   g 3      0.00005  -0.00001  -0.00001   0.00010   0.00002  -0.00000
  66  O 1   g 4     -0.00007  -0.00000   0.00000   0.00007   0.00002  -0.00000
  67  O 1   g 5      0.00002  -0.00000  -0.00000   0.00001   0.00002  -0.00001
  68  O 1   g 6     -0.00009   0.00000   0.00001  -0.00001   0.00002  -0.00000
  69  O 1   g 7     -0.00013   0.00001   0.00001  -0.00008  -0.00002  -0.00000
  70  O 1   g 8     -0.00016   0.00000   0.00001   0.00002  -0.00002  -0.00000
  71  O 1   g 9     -0.00000   0.00000   0.00000  -0.00005  -0.00003  -0.00000
  72  O 1   g 1     -0.00056   0.00000   0.00002   0.00017  -0.00003  -0.00001
  73  O 1   g 2     -0.00018  -0.00003   0.00005   0.00038   0.00013   0.00011
  74  O 1   g 3      0.00036  -0.00004  -0.00004   0.00035   0.00015   0.00011
  75  O 1   g 4     -0.00057  -0.00000   0.00004   0.00023   0.00012   0.00001
  76  O 1   g 5      0.00021  -0.00001   0.00003   0.00013   0.00004   0.00003
  77  O 1   g 6     -0.00082   0.00007   0.00006  -0.00013  -0.00021   0.00003
  78  O 1   g 7     -0.00104   0.00011   0.00004  -0.00034  -0.00003   0.00006
  79  O 1   g 8     -0.00127   0.00009   0.00004  -0.00007   0.00017   0.00002
  80  O 1   g 9     -0.00004   0.00006  -0.00004  -0.00028   0.00000   0.00002
  81  O 1   h 1     -0.00005   0.00002  -0.00000  -0.00008  -0.00003  -0.00001
  82  O 1   h 2     -0.00021   0.00001   0.00001  -0.00004  -0.00000  -0.00001
  83  O 1   h 3     -0.00012   0.00002   0.00001  -0.00011  -0.00004  -0.00001
  84  O 1   h 4     -0.00013   0.00001   0.00001  -0.00005  -0.00003  -0.00001
  85  O 1   h 5     -0.00010   0.00001   0.00001  -0.00003  -0.00000   0.00000
  86  O 1   h 6     -0.00003   0.00001  -0.00000  -0.00006  -0.00002   0.00000
  87  O 1   h 7     -0.00002   0.00000  -0.00000  -0.00004   0.00001  -0.00001
  88  O 1   h 8      0.00023  -0.00000  -0.00001  -0.00004  -0.00001  -0.00002
  89  O 1   h 9      0.00010   0.00000   0.00000  -0.00005  -0.00001  -0.00002
  90  O 1   h10      0.00011   0.00001  -0.00001  -0.00008  -0.00004  -0.00002
  91  O 1   h11      0.00013  -0.00000  -0.00000  -0.00004  -0.00002  -0.00001
  92  O 2   s       -0.00008  -0.00017  -0.00000   0.00045   0.00019  -0.00268
  93  O 2   s        0.00153   0.00321   0.00001  -0.01093  -0.00460   0.10610
  94  O 2   s        0.00002   0.00001   0.00000  -0.00023  -0.00010   0.00434
  95  O 2   s        0.00188   0.00417  -0.00010  -0.01232  -0.00480   0.12554
  96  O 2   s        0.00228   0.00275   0.00061  -0.02285  -0.01166   0.17556
  97  O 2   s       -0.00094  -0.00223   0.00149  -0.02408  -0.01279   0.14230
  98  O 2   px       0.00029   0.00184  -0.00005  -0.00250  -0.00112   0.04986
  99  O 2   py      -0.00415  -0.11189   0.00357  -0.00809  -0.00222  -0.02787
 100  O 2   pz      -0.00066  -0.02635   0.00084  -0.00745  -0.00343   0.11218
 101  O 2   px       0.00048   0.00301  -0.00009  -0.00420  -0.00194   0.08268
 102  O 2   py      -0.00678  -0.18271   0.00580  -0.01274  -0.00322  -0.04646
 103  O 2   pz      -0.00103  -0.04299   0.00138  -0.01247  -0.00573   0.18602
 104  O 2   px       0.00063   0.00444  -0.00015  -0.00554  -0.00226   0.11876
 105  O 2   py      -0.01020  -0.27512   0.00897  -0.02381  -0.00837  -0.06479
 106  O 2   pz      -0.00177  -0.06506   0.00207  -0.01750  -0.00812   0.26723
 107  O 2   px       0.00059   0.00403  -0.00024  -0.00340  -0.00038   0.09717
 108  O 2   py      -0.00868  -0.21756   0.00772  -0.02554  -0.01391  -0.05438
 109  O 2   pz      -0.00161  -0.05073   0.00147  -0.01083  -0.00608   0.21459
 110  O 2   px       0.00053   0.00137  -0.00008  -0.00371  -0.00108   0.06300
 111  O 2   py      -0.00214  -0.05716   0.00222  -0.00963  -0.00594  -0.04927
 112  O 2   pz       0.00035  -0.01218   0.00041  -0.00921  -0.00566   0.13769
 113  O 2   d 1      0.00003   0.00063  -0.00002   0.00003   0.00001   0.00014
 114  O 2   d 2      0.00005   0.00130  -0.00004   0.00008   0.00002   0.00012
 115  O 2   d 3      0.00002   0.00060  -0.00002   0.00005   0.00002  -0.00038
 116  O 2   d 4      0.00000   0.00012  -0.00000   0.00003   0.00001  -0.00048
 117  O 2   d 5      0.00001   0.00036  -0.00001   0.00001   0.00000   0.00026
 118  O 2   d 1      0.00009   0.00240  -0.00008   0.00010   0.00001   0.00079
 119  O 2   d 2      0.00018   0.00502  -0.00016   0.00030   0.00005   0.00105
 120  O 2   d 3      0.00007   0.00229  -0.00007   0.00028   0.00010  -0.00266
 121  O 2   d 4     -0.00001   0.00048  -0.00002   0.00025   0.00011  -0.00300
 122  O 2   d 5      0.00006   0.00137  -0.00003  -0.00010  -0.00009   0.00105
 123  O 2   d 1      0.00045   0.01057  -0.00037   0.00151   0.00096   0.00160
 124  O 2   d 2      0.00089   0.02193  -0.00077   0.00345   0.00178   0.00089
 125  O 2   d 3      0.00050   0.01042  -0.00039   0.00148   0.00094  -0.00485
 126  O 2   d 4      0.00015   0.00229  -0.00007   0.00014   0.00003  -0.00591
 127  O 2   d 5      0.00027   0.00615  -0.00029   0.00147   0.00098   0.00255
 128  O 2   d 1      0.00045   0.00724  -0.00032   0.00129   0.00192   0.00423
 129  O 2   d 2      0.00047   0.01473  -0.00060   0.00491   0.00292   0.00089
 130  O 2   d 3      0.00060   0.00737  -0.00040   0.00119   0.00175  -0.00015
 131  O 2   d 4      0.00012   0.00147  -0.00005   0.00009   0.00008  -0.00582
 132  O 2   d 5      0.00051   0.00480  -0.00040   0.00144   0.00119   0.00993
 133  O 2   f 1     -0.00000   0.00008  -0.00000  -0.00001  -0.00001   0.00008
 134  O 2   f 2     -0.00000  -0.00006   0.00000   0.00002   0.00001  -0.00001
 135  O 2   f 3     -0.00000  -0.00001   0.00000   0.00001   0.00000   0.00012
 136  O 2   f 4     -0.00000  -0.00002  -0.00000   0.00002   0.00002  -0.00008
 137  O 2   f 5      0.00000  -0.00002   0.00000  -0.00000  -0.00000   0.00005
 138  O 2   f 6     -0.00000  -0.00000  -0.00000   0.00003   0.00002  -0.00016
 139  O 2   f 7     -0.00000  -0.00003   0.00000   0.00002   0.00001  -0.00012
 140  O 2   f 1      0.00013   0.00299  -0.00011   0.00035   0.00017   0.00030
 141  O 2   f 2     -0.00006  -0.00180   0.00006  -0.00032  -0.00017  -0.00003
 142  O 2   f 3      0.00001  -0.00020   0.00000  -0.00015  -0.00006   0.00104
 143  O 2   f 4      0.00000  -0.00011   0.00001  -0.00017  -0.00011  -0.00040
 144  O 2   f 5     -0.00003  -0.00078   0.00003  -0.00014  -0.00007   0.00104
 145  O 2   f 6      0.00004   0.00089  -0.00002  -0.00007  -0.00006  -0.00145
 146  O 2   f 7     -0.00002  -0.00071   0.00003  -0.00013  -0.00010  -0.00108
 147  O 2   f 1      0.00017   0.00398  -0.00017   0.00042   0.00020   0.00020
 148  O 2   f 2     -0.00009  -0.00250   0.00009  -0.00073  -0.00050  -0.00029
 149  O 2   f 3      0.00003  -0.00036  -0.00001  -0.00057  -0.00017   0.00146
 150  O 2   f 4     -0.00004  -0.00034   0.00006  -0.00081  -0.00051  -0.00192
 151  O 2   f 5     -0.00012  -0.00115   0.00005  -0.00003  -0.00019  -0.00029
 152  O 2   f 6      0.00004   0.00100   0.00003  -0.00094  -0.00043  -0.00264
 153  O 2   f 7     -0.00008  -0.00109   0.00007  -0.00031  -0.00050  -0.00200
 154  O 2   g 1     -0.00000  -0.00013   0.00000  -0.00003  -0.00001  -0.00003
 155  O 2   g 2     -0.00000  -0.00014   0.00000  -0.00002  -0.00001  -0.00006
 156  O 2   g 3      0.00000   0.00003  -0.00000   0.00000   0.00000  -0.00005
 157  O 2   g 4     -0.00000  -0.00009   0.00000  -0.00001  -0.00001  -0.00013
 158  O 2   g 5     -0.00000  -0.00010   0.00000  -0.00002  -0.00001   0.00005
 159  O 2   g 6     -0.00000   0.00002  -0.00000   0.00001   0.00000  -0.00002
 160  O 2   g 7     -0.00001  -0.00015   0.00001  -0.00003  -0.00001   0.00007
 161  O 2   g 8     -0.00000  -0.00001   0.00000  -0.00000  -0.00000   0.00009
 162  O 2   g 9     -0.00000  -0.00006   0.00000  -0.00002  -0.00001   0.00002
 163  O 2   g 1     -0.00004  -0.00097   0.00004  -0.00011  -0.00011  -0.00019
 164  O 2   g 2     -0.00004  -0.00109   0.00004  -0.00021  -0.00008   0.00006
 165  O 2   g 3     -0.00000   0.00021  -0.00001   0.00011   0.00003  -0.00014
 166  O 2   g 4     -0.00002  -0.00062   0.00003  -0.00016  -0.00008  -0.00027
 167  O 2   g 5     -0.00006  -0.00090   0.00003   0.00009   0.00003   0.00028
 168  O 2   g 6      0.00001   0.00014  -0.00001   0.00006   0.00006   0.00005
 169  O 2   g 7     -0.00007  -0.00125   0.00004   0.00007   0.00001   0.00032
 170  O 2   g 8     -0.00003  -0.00022   0.00000   0.00014   0.00010   0.00053
 171  O 2   g 9     -0.00003  -0.00045   0.00002  -0.00005   0.00000  -0.00009
 172  O 2   h 1     -0.00000  -0.00007   0.00000  -0.00001   0.00000   0.00002
 173  O 2   h 2      0.00000   0.00019  -0.00001   0.00004   0.00002   0.00004
 174  O 2   h 3      0.00000   0.00008  -0.00000   0.00002   0.00001   0.00001
 175  O 2   h 4      0.00000   0.00003  -0.00000   0.00001   0.00001   0.00007
 176  O 2   h 5     -0.00000   0.00007  -0.00000   0.00003   0.00001   0.00006
 177  O 2   h 6      0.00001   0.00019  -0.00001   0.00002   0.00001  -0.00003
 178  O 2   h 7      0.00000   0.00005  -0.00000  -0.00001  -0.00000  -0.00001
 179  O 2   h 8      0.00001   0.00021  -0.00001   0.00003   0.00002  -0.00002
 180  O 2   h 9      0.00001   0.00018  -0.00001  -0.00001  -0.00000  -0.00009
 181  O 2   h10      0.00000   0.00004  -0.00000   0.00002   0.00001  -0.00000
 182  O 2   h11      0.00000   0.00010  -0.00000   0.00002   0.00002   0.00004
 183  H 1   s       -0.00159  -0.03672   0.00116  -0.00091  -0.00004  -0.01949
 184  H 1   s       -0.00364  -0.08804   0.00282  -0.00377  -0.00105  -0.04861
 185  H 1   s       -0.00501  -0.11882   0.00252   0.01693   0.01497  -0.07832
 186  H 1   s       -0.00292  -0.09634   0.00215   0.00554   0.00660  -0.03445
 187  H 1   s       -0.00110  -0.01881  -0.00017   0.01815   0.01058   0.01998
 188  H 1   px      -0.00001  -0.00060   0.00002  -0.00013  -0.00004   0.00017
 189  H 1   py       0.00003   0.00156  -0.00006   0.00040   0.00019   0.00094
 190  H 1   pz      -0.00003  -0.00101   0.00003  -0.00015  -0.00008   0.00066
 191  H 1   px      -0.00003  -0.00172   0.00005  -0.00005   0.00002   0.00059
 192  H 1   py       0.00015   0.00377  -0.00009  -0.00041  -0.00046   0.00368
 193  H 1   pz      -0.00007  -0.00307   0.00009  -0.00024  -0.00000   0.00241
[...]
 148  O 2   f 2      0.00100  -0.00761
 149  O 2   f 3     -0.00039  -0.01091
 150  O 2   f 4     -0.00219  -0.00765
 151  O 2   f 5      0.00052  -0.00142
 152  O 2   f 6     -0.00394  -0.00606
 153  O 2   f 7      0.00180  -0.00162
 154  O 2   g 1      0.00003  -0.00002
 155  O 2   g 2      0.00007  -0.00011
 156  O 2   g 3      0.00004  -0.00007
 157  O 2   g 4      0.00011  -0.00004
 158  O 2   g 5     -0.00004  -0.00019
 159  O 2   g 6     -0.00001  -0.00006
 160  O 2   g 7     -0.00005  -0.00019
 161  O 2   g 8     -0.00006  -0.00013
 162  O 2   g 9      0.00004  -0.00004
 163  O 2   g 1      0.00036  -0.00015
 164  O 2   g 2     -0.00076   0.00024
 165  O 2   g 3      0.00001   0.00163
 166  O 2   g 4     -0.00077   0.00039
 167  O 2   g 5      0.00053   0.00172
 168  O 2   g 6     -0.00011   0.00088
 169  O 2   g 7      0.00069   0.00167
 170  O 2   g 8      0.00003   0.00118
 171  O 2   g 9     -0.00056   0.00050
 172  O 2   h 1     -0.00009   0.00013
 173  O 2   h 2     -0.00003   0.00024
 174  O 2   h 3      0.00001   0.00009
 175  O 2   h 4      0.00003  -0.00006
 176  O 2   h 5      0.00008   0.00017
 177  O 2   h 6     -0.00005   0.00007
 178  O 2   h 7     -0.00002  -0.00012
 179  O 2   h 8     -0.00004   0.00010
 180  O 2   h 9     -0.00011  -0.00010
 181  O 2   h10      0.00011   0.00010
 182  O 2   h11     -0.00003   0.00007
 183  H 1   s       -0.00069   0.00017
 184  H 1   s        0.00592  -0.00009
 185  H 1   s       -0.01325  -0.00255
 186  H 1   s       -0.12113  -0.28994
 187  H 1   s       -0.11277   0.88915
 188  H 1   px       0.00005  -0.00032
 189  H 1   py      -0.00032   0.00146
 190  H 1   pz       0.00013  -0.00064
 191  H 1   px       0.00014   0.00101
 192  H 1   py      -0.00153  -0.00549
 193  H 1   pz       0.00059   0.00226
 194  H 1   px       0.00723  -0.01690
 195  H 1   py       0.00754   0.03506
 196  H 1   pz      -0.00663  -0.03850
 197  H 1   px       0.00597  -0.02688
 198  H 1   py       0.04788   0.07502
 199  H 1   pz      -0.01806  -0.03045
 200  H 1   d 1     -0.00008  -0.00015
 201  H 1   d 2     -0.00036  -0.00054
 202  H 1   d 3     -0.00009   0.00023
 203  H 1   d 4      0.00003   0.00020
 204  H 1   d 5     -0.00032   0.00050
 205  H 1   d 1     -0.00040   0.00215
 206  H 1   d 2      0.00250   0.00633
 207  H 1   d 3      0.00023  -0.00223
 208  H 1   d 4     -0.00008  -0.00222
 209  H 1   d 5      0.00214  -0.00260
 210  H 1   d 1     -0.00510   0.01142
 211  H 1   d 2      0.00902   0.02012
 212  H 1   d 3      0.00297   0.00125
 213  H 1   d 4      0.00042  -0.00809
 214  H 1   d 5      0.01450   0.01834
 215  H 1   f 1      0.00004   0.00027
 216  H 1   f 2     -0.00000   0.00008
 217  H 1   f 3      0.00010   0.00022
 218  H 1   f 4      0.00004   0.00031
 219  H 1   f 5      0.00001   0.00003
 220  H 1   f 6      0.00003   0.00032
 221  H 1   f 7     -0.00009   0.00004
 222  H 1   f 1     -0.00347  -0.00079
 223  H 1   f 2      0.00023   0.00301
 224  H 1   f 3     -0.00025   0.00257
 225  H 1   f 4      0.00149   0.00214
 226  H 1   f 5     -0.00065  -0.00058
 227  H 1   f 6      0.00277   0.00293
 228  H 1   f 7     -0.00033   0.00174
 229  H 1   g 1      0.00003  -0.00002
 230  H 1   g 2     -0.00022  -0.00014
 231  H 1   g 3      0.00007   0.00006
 232  H 1   g 4     -0.00014  -0.00018
 233  H 1   g 5      0.00007   0.00027
 234  H 1   g 6     -0.00001   0.00009
 235  H 1   g 7      0.00003   0.00030
 236  H 1   g 8      0.00002   0.00021
 237  H 1   g 9     -0.00027   0.00008
 238  H 2   s        0.00002  -0.00259
 239  H 2   s        0.00507   0.00579
 240  H 2   s       -0.03582  -0.09626
 241  H 2   s       -0.23354  -0.12390
 242  H 2   s        0.25412  -0.77169
 243  H 2   px      -0.00013   0.00040
 244  H 2   py      -0.00047   0.00078
 245  H 2   pz      -0.00064   0.00085
 246  H 2   px       0.00046  -0.00082
 247  H 2   py       0.00241   0.00069
 248  H 2   pz       0.00289   0.00012
 249  H 2   px      -0.00666   0.00527
 250  H 2   py      -0.02147  -0.01813
 251  H 2   pz      -0.02552   0.00087
 252  H 2   px      -0.02363  -0.02404
 253  H 2   py      -0.05616  -0.02329
 254  H 2   pz      -0.05588  -0.03542
 255  H 2   d 1     -0.00001  -0.00000
 256  H 2   d 2      0.00013   0.00060
 257  H 2   d 3      0.00011  -0.00011
 258  H 2   d 4      0.00008   0.00005
 259  H 2   d 5     -0.00017  -0.00065
 260  H 2   d 1     -0.00015   0.00005
 261  H 2   d 2     -0.00137  -0.00377
 262  H 2   d 3     -0.00117   0.00160
 263  H 2   d 4     -0.00076   0.00015
 264  H 2   d 5      0.00098   0.00464
 265  H 2   d 1     -0.00638  -0.00596
 266  H 2   d 2     -0.01815  -0.01149
 267  H 2   d 3     -0.00538   0.00239
 268  H 2   d 4     -0.00620   0.00107
 269  H 2   d 5      0.00603   0.00411
 270  H 2   f 1     -0.00001   0.00030
 271  H 2   f 2      0.00001   0.00007
 272  H 2   f 3     -0.00006   0.00016
 273  H 2   f 4     -0.00006   0.00001
 274  H 2   f 5     -0.00001  -0.00011
 275  H 2   f 6     -0.00004   0.00009
 276  H 2   f 7     -0.00005  -0.00011
 277  H 2   f 1      0.00053   0.00066
 278  H 2   f 2     -0.00160  -0.00092
 279  H 2   f 3     -0.00241  -0.00163
 280  H 2   f 4      0.00033   0.00206
 281  H 2   f 5     -0.00116   0.00056
 282  H 2   f 6      0.00209   0.00322
 283  H 2   f 7      0.00094   0.00165
 284  H 2   g 1      0.00004   0.00011
 285  H 2   g 2      0.00007   0.00022
 286  H 2   g 3     -0.00014  -0.00004
 287  H 2   g 4     -0.00011   0.00009
 288  H 2   g 5      0.00009   0.00011
 289  H 2   g 6     -0.00007  -0.00007
 290  H 2   g 7      0.00015   0.00015
 291  H 2   g 8      0.00010   0.00009
 292  H 2   g 9     -0.00001  -0.00006
 293  H 3   s       -0.00262   0.00766
 294  H 3   s       -0.03597  -0.00355
 295  H 3   s        0.14131   0.35018
 296  H 3   s        0.65445   0.51837
 297  H 3   s        0.68372   1.06116
 298  H 3   px      -0.00020  -0.00079
 299  H 3   py       0.00002   0.00068
 300  H 3   pz       0.00022  -0.00124
 301  H 3   px      -0.00462  -0.00308
 302  H 3   py       0.00189  -0.00116
 303  H 3   pz      -0.00598  -0.00031
 304  H 3   px       0.06876   0.06473
 305  H 3   py       0.01867  -0.01201
 306  H 3   pz       0.06173   0.06972
 307  H 3   px       0.24077   0.11199
 308  H 3   py       0.03079  -0.14181
 309  H 3   pz       0.17953   0.17129
 310  H 3   d 1      0.00013   0.00032
 311  H 3   d 2     -0.00024   0.00019
 312  H 3   d 3     -0.00030  -0.00056
 313  H 3   d 4     -0.00153  -0.00074
 314  H 3   d 5     -0.00058  -0.00061
 315  H 3   d 1      0.00124  -0.00213
 316  H 3   d 2      0.00274  -0.00138
 317  H 3   d 3      0.00344   0.00606
 318  H 3   d 4      0.01200   0.01191
 319  H 3   d 5      0.00562   0.00659
 320  H 3   d 1      0.00797  -0.01752
 321  H 3   d 2      0.01282  -0.02232
 322  H 3   d 3      0.01223   0.01205
 323  H 3   d 4      0.06673   0.03570
 324  H 3   d 5      0.04912   0.01445
 325  H 3   f 1     -0.00003   0.00013
 326  H 3   f 2      0.00003  -0.00011
 327  H 3   f 3     -0.00005   0.00020
 328  H 3   f 4      0.00007  -0.00022
 329  H 3   f 5      0.00022   0.00090
 330  H 3   f 6     -0.00016   0.00070
 331  H 3   f 7     -0.00010   0.00014
 332  H 3   f 1      0.00054  -0.00298
 333  H 3   f 2      0.00151  -0.00493
 334  H 3   f 3      0.00263  -0.00408
 335  H 3   f 4     -0.00418  -0.00031
 336  H 3   f 5      0.01069   0.00502
 337  H 3   f 6      0.01520   0.00451
 338  H 3   f 7      0.00720   0.00195
 339  H 3   g 1      0.00001  -0.00005
 340  H 3   g 2      0.00005  -0.00033
 341  H 3   g 3      0.00014  -0.00046
 342  H 3   g 4      0.00020  -0.00005
 343  H 3   g 5     -0.00057  -0.00032
 344  H 3   g 6      0.00016   0.00015
 345  H 3   g 7      0.00105   0.00045
 346  H 3   g 8      0.00085   0.00015
 347  H 3   g 9      0.00035   0.00006
 348  H 4   s       -0.00897  -0.00155
 349  H 4   s       -0.00680   0.01416
 350  H 4   s       -0.36136  -0.26421
 351  H 4   s       -0.08519  -0.53961
 352  H 4   s       -2.01918  -0.90384
 353  H 4   px      -0.00019  -0.00021
 354  H 4   py      -0.00324  -0.00147
 355  H 4   pz      -0.00183  -0.00028
 356  H 4   px      -0.00114  -0.00100
 357  H 4   py       0.00596  -0.00167
 358  H 4   pz       0.00277  -0.00175
 359  H 4   px       0.01421   0.04671
 360  H 4   py       0.03261   0.04165
 361  H 4   pz       0.03479   0.06558
 362  H 4   px      -0.06282   0.09582
 363  H 4   py       0.09201   0.12108
 364  H 4   pz       0.07723   0.16088
 365  H 4   d 1      0.00038   0.00046
 366  H 4   d 2      0.00058   0.00062
 367  H 4   d 3      0.00009  -0.00025
 368  H 4   d 4      0.00024   0.00119
 369  H 4   d 5     -0.00027  -0.00022
 370  H 4   d 1     -0.00478  -0.00726
 371  H 4   d 2     -0.01179  -0.00929
 372  H 4   d 3     -0.00020   0.00075
 373  H 4   d 4     -0.00365  -0.00861
 374  H 4   d 5      0.00621   0.00306
 375  H 4   d 1      0.01884  -0.02941
 376  H 4   d 2     -0.03014  -0.04756
 377  H 4   d 3     -0.01521  -0.02041
 378  H 4   d 4      0.00326  -0.01243
 379  H 4   d 5      0.00221  -0.00769
 380  H 4   f 1     -0.00031  -0.00024
 381  H 4   f 2      0.00105   0.00049
 382  H 4   f 3     -0.00012  -0.00009
 383  H 4   f 4     -0.00039  -0.00048
 384  H 4   f 5     -0.00005   0.00045
 385  H 4   f 6     -0.00068  -0.00032
 386  H 4   f 7     -0.00075  -0.00053
 387  H 4   f 1     -0.00095   0.00514
 388  H 4   f 2     -0.00157   0.00749
 389  H 4   f 3      0.00694   0.00793
 390  H 4   f 4     -0.00325  -0.00376
 391  H 4   f 5      0.00157  -0.00093
 392  H 4   f 6     -0.00540  -0.00516
 393  H 4   f 7      0.00288  -0.00438
 394  H 4   g 1     -0.00015   0.00024
 395  H 4   g 2      0.00036   0.00003
 396  H 4   g 3     -0.00022  -0.00029
 397  H 4   g 4      0.00012   0.00013
 398  H 4   g 5      0.00041   0.00052
 399  H 4   g 6     -0.00000   0.00024
 400  H 4   g 7      0.00046   0.00063
 401  H 4   g 8      0.00022   0.00070
 402  H 4   g 9     -0.00014   0.00054
 403  O 3   s        0.00150   0.00069
 404  O 3   s       -0.06184   0.01205
 405  O 3   s       -0.00519   0.00238
 406  O 3   s        0.00275   0.01354
 407  O 3   s       -0.33065  -0.00674
 408  O 3   s       -1.65182   0.15613
 409  O 3   px       0.01082  -0.04438
 410  O 3   py       0.01647   0.00915
 411  O 3   pz       0.01318  -0.02002
 412  O 3   px       0.01193  -0.07417
 413  O 3   py       0.01968   0.01453
 414  O 3   pz       0.02925  -0.03114
 415  O 3   px       0.03730  -0.10418
 416  O 3   py       0.06096   0.03339
 417  O 3   pz       0.01258  -0.05883
 418  O 3   px       0.24879  -0.04109
 419  O 3   py       0.43290   0.07793
 420  O 3   pz      -0.19890   0.01888
 421  O 3   px       0.29151  -0.48395
 422  O 3   py       0.12304  -0.03286
 423  O 3   pz      -0.00070  -0.28614
 424  O 3   d 1     -0.00036  -0.00042
 425  O 3   d 2      0.00061  -0.00012
 426  O 3   d 3      0.00028   0.00035
 427  O 3   d 4     -0.00029  -0.00009
 428  O 3   d 5     -0.00002   0.00003
 429  O 3   d 1      0.00205   0.00196
 430  O 3   d 2     -0.00414   0.00003
 431  O 3   d 3     -0.00184  -0.00122
 432  O 3   d 4      0.00422   0.00010
 433  O 3   d 5      0.00175  -0.00145
 434  O 3   d 1     -0.01233  -0.00816
 435  O 3   d 2      0.03013   0.00738
 436  O 3   d 3      0.01113   0.00436
 437  O 3   d 4     -0.01938  -0.00030
 438  O 3   d 5     -0.00836   0.01235
 439  O 3   d 1     -0.08329   0.01565
 440  O 3   d 2      0.10339   0.02310
 441  O 3   d 3      0.04563  -0.03104
 442  O 3   d 4     -0.01855   0.00957
 443  O 3   d 5     -0.04386   0.05543
 444  O 3   f 1     -0.00024   0.00024
 445  O 3   f 2     -0.00061   0.00006
 446  O 3   f 3      0.00003  -0.00001
 447  O 3   f 4      0.00006   0.00014
 448  O 3   f 5      0.00032  -0.00028
 449  O 3   f 6      0.00007  -0.00067
 450  O 3   f 7     -0.00029  -0.00018
 451  O 3   f 1      0.00194  -0.00150
 452  O 3   f 2      0.00399   0.00045
 453  O 3   f 3      0.00039   0.00098
 454  O 3   f 4     -0.00001  -0.00004
 455  O 3   f 5     -0.00236   0.00127
 456  O 3   f 6      0.00062   0.00392
 457  O 3   f 7      0.00211   0.00089
 458  O 3   f 1      0.03640  -0.01872
 459  O 3   f 2      0.01521   0.00127
 460  O 3   f 3      0.00956   0.01231
 461  O 3   f 4      0.01022  -0.00434
 462  O 3   f 5     -0.03485   0.01661
 463  O 3   f 6      0.01557   0.02513
 464  O 3   f 7      0.01014   0.00033
 465  O 3   g 1      0.00011  -0.00006
 466  O 3   g 2     -0.00013   0.00035
 467  O 3   g 3     -0.00011   0.00036
 468  O 3   g 4      0.00010  -0.00005
 469  O 3   g 5      0.00003  -0.00004
 470  O 3   g 6      0.00010  -0.00025
 471  O 3   g 7     -0.00011  -0.00002
 472  O 3   g 8      0.00010   0.00013
 473  O 3   g 9     -0.00021   0.00018
 474  O 3   g 1     -0.00528   0.00016
 475  O 3   g 2      0.00007  -0.00604
 476  O 3   g 3      0.00609  -0.00332
 477  O 3   g 4      0.00040   0.00080
 478  O 3   g 5      0.00007   0.00219
 479  O 3   g 6     -0.00028   0.00308
 480  O 3   g 7      0.00420   0.00265
 481  O 3   g 8      0.00246   0.00007
 482  O 3   g 9      0.00287  -0.00224
 483  O 3   h 1      0.00030  -0.00009
 484  O 3   h 2     -0.00017  -0.00012
 485  O 3   h 3     -0.00042  -0.00039
 486  O 3   h 4      0.00019  -0.00036
 487  O 3   h 5     -0.00006  -0.00033
 488  O 3   h 6      0.00033   0.00023
 489  O 3   h 7      0.00054  -0.00026
 490  O 3   h 8      0.00013   0.00018
 491  O 3   h 9      0.00041   0.00019
 492  O 3   h10      0.00011  -0.00039
 493  O 3   h11     -0.00052   0.00005
 494  H 5   s        0.00798  -0.00640
 495  H 5   s        0.00058  -0.00869
 496  H 5   s        0.50861  -0.12026
 497  H 5   s        0.44546  -0.08868
 498  H 5   s        1.36039  -1.73971
 499  H 5   px      -0.00243   0.00229
 500  H 5   py      -0.00152   0.00111
 501  H 5   pz      -0.00050   0.00015
 502  H 5   px       0.00339  -0.00289
 503  H 5   py       0.00493  -0.00164
 504  H 5   pz      -0.00172   0.00076
 505  H 5   px       0.11209   0.02887
 506  H 5   py       0.02835   0.01791
 507  H 5   pz       0.03413  -0.02521
 508  H 5   px       0.13681  -0.00533
 509  H 5   py       0.05295  -0.03872
 510  H 5   pz       0.07876  -0.01930
 511  H 5   d 1     -0.00018   0.00010
 512  H 5   d 2     -0.00005   0.00034
 513  H 5   d 3      0.00051   0.00003
 514  H 5   d 4     -0.00044   0.00047
 515  H 5   d 5     -0.00054   0.00030
 516  H 5   d 1      0.00911   0.00204
 517  H 5   d 2      0.00215  -0.00299
 518  H 5   d 3     -0.00878  -0.00157
 519  H 5   d 4      0.00744  -0.00549
 520  H 5   d 5      0.01131  -0.00207
 521  H 5   d 1     -0.00097   0.00799
 522  H 5   d 2      0.00800  -0.01246
 523  H 5   d 3      0.00435  -0.00868
 524  H 5   d 4      0.02595  -0.02184
 525  H 5   d 5      0.01118   0.00812
 526  H 5   f 1      0.00166   0.00017
 527  H 5   f 2      0.00018  -0.00006
 528  H 5   f 3     -0.00074  -0.00017
 529  H 5   f 4     -0.00063   0.00012
 530  H 5   f 5     -0.00106  -0.00004
 531  H 5   f 6      0.00065  -0.00039
 532  H 5   f 7      0.00086  -0.00018
 533  H 5   f 1     -0.00267   0.00163
 534  H 5   f 2      0.00302  -0.00485
 535  H 5   f 3      0.00277  -0.00123
 536  H 5   f 4     -0.00186   0.00458
 537  H 5   f 5      0.00247  -0.00311
 538  H 5   f 6      0.00189  -0.00315
 539  H 5   f 7      0.00063   0.00025
 540  H 5   g 1      0.00020   0.00012
 541  H 5   g 2      0.00029  -0.00047
 542  H 5   g 3      0.00013  -0.00024
 543  H 5   g 4     -0.00007   0.00015
 544  H 5   g 5      0.00002   0.00025
 545  H 5   g 6     -0.00030   0.00043
 546  H 5   g 7      0.00000  -0.00014
 547  H 5   g 8      0.00017  -0.00026
 548  H 5   g 9      0.00015   0.00001
 549  H 6   s        0.00361   0.00261
 550  H 6   s        0.00789  -0.00378
 551  H 6   s        0.44228   0.12837
 552  H 6   s        0.26157  -0.12329
 553  H 6   s        0.16970   1.76008
 554  H 6   px       0.00049   0.00096
 555  H 6   py      -0.00127  -0.00172
 556  H 6   pz       0.00133   0.00194
 557  H 6   px       0.00030  -0.00218
 558  H 6   py       0.00759   0.00346
 559  H 6   pz      -0.00586  -0.00291
 560  H 6   px      -0.03857  -0.03973
 561  H 6   py       0.05676  -0.03755
 562  H 6   pz      -0.08352   0.00080
 563  H 6   px      -0.06111  -0.04861
 564  H 6   py       0.06207  -0.03287
 565  H 6   pz      -0.08189   0.01576
 566  H 6   d 1     -0.00044   0.00058
 567  H 6   d 2     -0.00017   0.00017
 568  H 6   d 3     -0.00023  -0.00058
 569  H 6   d 4      0.00005  -0.00073
 570  H 6   d 5     -0.00004  -0.00026
 571  H 6   d 1     -0.00227  -0.00673
 572  H 6   d 2     -0.01213   0.00054
 573  H 6   d 3      0.00606   0.00448
 574  H 6   d 4      0.00527   0.01087
 575  H 6   d 5     -0.00423   0.00659
 576  H 6   d 1      0.00173  -0.01561
 577  H 6   d 2      0.00249   0.02108
 578  H 6   d 3     -0.00458   0.00196
 579  H 6   d 4      0.00426   0.02476
 580  H 6   d 5      0.01111   0.02671
 581  H 6   f 1     -0.00037   0.00045
 582  H 6   f 2      0.00122   0.00043
 583  H 6   f 3      0.00146   0.00024
 584  H 6   f 4      0.00015   0.00012
 585  H 6   f 5     -0.00067  -0.00065
 586  H 6   f 6      0.00060  -0.00056
 587  H 6   f 7      0.00046  -0.00018
 588  H 6   f 1      0.00066   0.00635
 589  H 6   f 2     -0.00439   0.00632
 590  H 6   f 3     -0.00167  -0.00116
 591  H 6   f 4     -0.00065  -0.00234
 592  H 6   f 5      0.00209  -0.00499
 593  H 6   f 6     -0.00078  -0.00816
 594  H 6   f 7     -0.00253   0.00154
 595  H 6   g 1     -0.00011  -0.00024
 596  H 6   g 2      0.00009  -0.00091
 597  H 6   g 3      0.00018  -0.00059
 598  H 6   g 4     -0.00018  -0.00012
 599  H 6   g 5      0.00008  -0.00005
 600  H 6   g 6     -0.00005   0.00033
 601  H 6   g 7     -0.00001   0.00056
 602  H 6   g 8      0.00008  -0.00005
 603  H 6   g 9      0.00013  -0.00044

          Ground-State Mulliken Net Atomic Charges

     Atom                 Charge (a.u.)
  ----------------------------------------
      1 O                    -0.593636
      2 O                    -0.600206
      3 H                     0.315312
      4 H                     0.280041
      5 H                     0.302853
      6 H                     0.300974
      7 O                    -0.600248
      8 H                     0.302679
      9 H                     0.292230
  ----------------------------------------
  Sum of atomic charges =     0.000000

 -----------------------------------------------------------------
                    Cartesian Multipole Moments
 -----------------------------------------------------------------
    Charge (ESU x 10^10)
                 0.0000
    Dipole Moment (Debye)
         X      -2.2936      Y       0.6094      Z      -1.2842
       Tot       2.6983
    Quadrupole Moments (Debye-Ang)
        XX     -19.7478     XY      -3.8249     YY     -26.1167
        XZ       5.2853     YZ       9.1779     ZZ     -22.3718
    Octopole Moments (Debye-Ang^2)
       XXX      -2.7632    XXY      -1.9092    XYY     -22.3156
       YYY     -34.3352    XXZ       0.7023    XYZ       5.6410
       YYZ      -9.1232    XZZ      -3.2543    YZZ       3.2592
       ZZZ       0.0849
    Hexadecapole Moments (Debye-Ang^3)
      XXXX    -136.4085   XXXY     -86.3983   XXYY    -153.0471
      XYYY    -105.4594   YYYY    -674.8381   XXXZ      44.7248
      XXYZ      37.9486   XYYZ      35.6182   YYYZ     163.6383
      XXZZ     -40.8039   XYZZ     -37.0802   YYZZ    -143.1330
      XZZZ      35.0227   YZZZ      83.1675   ZZZZ     -67.9960
 -----------------------------------------------------------------
 Total job time:  482.99s(wall), 14910.17s(cpu) 
 Tue Dec 17 21:42:04 2024

        *************************************************************
        *                                                           *
        *  Thank you very much for using Q-Chem.  Have a nice day.  *
        *                                                           *
        *************************************************************


