                  Welcome to Q-Chem
     A Quantum Leap Into The Future Of Chemistry


 Q-Chem 6.2 (devel), Q-Chem, Inc., Pleasanton, CA (2024)

 E. Epifanovsky,  A. T. B. Gilbert,  Xintian Feng,  Joonho Lee,  Yuezhi Mao,  
 N. Mardirossian,  P. Pokhilko,  A. White,  M. Wormit,  M. P. Coons,  
 A. L. Dempwolff,  Zhengting Gan,  D. Hait,  P. R. Horn,  L. D. Jacobson,  
 I. Kaliman,  J. Kussmann,  A. W. Lange,  Ka Un Lao,  D. S. Levine,  Jie Liu,  
 S. C. McKenzie,  A. F. Morrison,  K. D. Nanda,  F. Plasser,  D. R. Rehn,  
 M. L. Vidal,  Zhi-Qiang You,  Ying Zhu,  Huseyin Aksu,  B. Alam,  
 B. Albrecht,  A. Aldossary,  E. Alguire,  J. H. Andersen,  
 J. E. Arias-Martinez,  V. Athavale,  D. Barton,  K. Begam,  A. Behn,  
 N. Bellonzi,  Y. A. Bernard,  E. J. Berquist,  H. Burton,  A. Carreras,  
 K. Carter-Fenk,  Mathew Chow,  Romit Chakraborty,  Chandrima Chakravarty,  
 Junhan Chen,  A. D. Chien,  K. D. Closser,  V. Cofer-Shabica,  L. Cunha,  
 S. Dasgupta,  Jia Deng,  Joseph Dickinson,  M. de Wergifosse,  
 M. Diedenhofen,  Hainam Do,  Wenjie Dou,  S. Ehlert,  Po-Tung Fang,  
 S. Fatehi,  Qingguo Feng,  Jonathan Fetherolf,  T. Friedhoff,  
 Thomas Froitzheim,  Sarai Folkestad,  B. Ganoe,  J. Gayvert,  Qinghui Ge,  
 G. Gidofalvi,  M. Gimferrer,  M. Goldey,  Montgomery Gray,  J. Gomes,  
 C. Gonzalez-Espinoza,  S. Gulania,  A. Gunina,  J. A. Gyamfi,  
 M. W. D. Hanson-Heine,  P. H. P. Harbach,  A. W. Hauser,  M. F. Herbst,  
 M. Hernandez Vera,  M. Hodecker,  Z. C. Holden,  S. Houck,  Xunkun Huang,  
 Kerwin Hui,  B. C. Huynh,  K. Ikeda,  M. Ivanov,  Nayanthara K. Jayadev,  
 Hyunjun Ji,  Zuxin Jin,  Hanjie Jiang,  Subrata Jana,  B. Kaduk,  
 S. Kaehler,  R. Kang,  K. Khistyaev,  Jaehoon Kim,  Yongbin Kim,  
 P. Klunzinger,  Z. Koczor-Benda,  Joong Hoon Koh,  D. Kosenkov,  
 Saikiran Kotaru,  L. Koulias,  T. Kowalczyk,  C. M. Krauter,  K. Kue,  
 A. Kunitsa,  T. Kus,  A. Landau,  K. V. Lawler,  D. Lefrancois,  S. Lehtola,  
 Rain Li,  Shaozhi Li,  Tao E. Li,  Yi-Pei Li,  Jiashu Liang,  M. Liebenthal,  
 Hung-Hsuan Lin,  You-Sheng Lin,  Fenglai Liu,  Kuan-Yu Liu,  Xiao Liu,  
 M. Loipersberger,  A. Luenser,  C. Malbon,  Aniket Mandal,  Manisha,  
 A. Manjanath,  P. Manohar,  E. Mansoor,  S. F. Manzer,  Shan-Ping Mao,  
 A. V. Marenich,  T. Markovich,  S. Mason,  F. Matz,  S. A. Maurer,  
 Samuel May,  Alexandra McIsaac,  P. F. McLaughlin,  M. F. S. J. Menger,  
 J.-M. Mewes,  S. A. Mewes,  P. Morgante,  Mohammad Mostafanejad,  
 Madhubani Mukherjee,  J. W. Mullinax,  Quyen Nguyen,  Avik Kumar Ojha,  
 K. J. Oosterbaan,  Eno Paenurk,  Xiaoliang Pan,  G. Paran,  V. Parravicini,  
 Alexander C. Paul,  Suranjan K. Paul,  F. Pavosevic,  Zheng Pei,  S. Prager,  
 E. I. Proynov,  E. Ramos,  B. Rana,  A. E. Rask,  A. Rettig,  R. M. Richard,  
 F. Rob,  E. Rossomme,  T. Scheele,  M. Scheurer,  M. Schneider,  
 P. E. Schneider,  Tim K. Schramm,  N. Sergueev,  S. M. Sharada,  
 Hengyuan Shen,  W. Skomorowski,  D. W. Small,  C. J. Stein,  
 Alistair J. Sterling,  Yingli Su,  Yu-Chuan Su,  E. J. Sundstrom,  
 J. Talbot,  Zhen Tao,  J. Thirman,  Hung-Yi Tsai,  T. Tsuchimochi,  
 N. M. Tubman,  C. Utku,  S. P. Veccham,  O. Vydrov,  Rahel Weiss,  
 J. Wenzel,  Jonathan Wong,  J. Witte,  H. Wu,  Yanze Wu,  A. Yamada,  
 Chou-Hsun Yang,  Kun Yao,  S. Yeganeh,  S. R. Yost,  Qi Yu,  A. Zech,  
 F. Zeller,  Chongxiao Zhao,  Igor Ying Zhang,  Xing Zhang,  Yu Zhang,  
 D. Zuev,  A. Aspuru-Guzik,  A. T. Bell,  N. A. Besley,  K. B. Bravaya,  
 B. R. Brooks,  D. Casanova,  Jeng-Da Chai,  Hsing-Ta Chen,  S. Coriani,  
 C. J. Cramer,  A. E. DePrince, III,  R. A. DiStasio Jr.,  A. Dreuw,  
 B. D. Dunietz,  T. R. Furlani,  W. A. Goddard III,  S. Grimme,  
 S. Hammes-Schiffer,  T. Head-Gordon,  W. J. Hehre,  Chao-Ping Hsu,  
 T.-C. Jagau,  Yousung Jung,  A. Klamt,  Jing Kong,  D. S. Lambrecht,  
 Xiangyuan Li,  WanZhen Liang,  N. J. Mayhall,  C. W. McCurdy,  J. B. Neaton,  
 T. Neudecker,  C. Ochsenfeld,  J. A. Parkhill,  R. Peverati,  
 V. A. Rassolov,  Haisheng Ren,  Yihan Shao,  L. V. Slipchenko,  
 R. P. Steele,  J. E. Subotnik,  A. J. W. Thom,  A. Tkatchenko,  
 D. G. Truhlar,  T. Van Voorhis,  Fan Wang,  T. A. Wesolowski,  K. B. Whaley,  
 H. L. Woodcock III,  P. M. Zimmerman,  S. Faraji,  P. M. W. Gill,  
 M. Head-Gordon,  J. M. Herbert,  A. I. Krylov

 Contributors to earlier versions of Q-Chem not listed above: 
 R. D. Adamson,  B. Austin,  R. Baer,  J. Baker,  G. J. O. Beran,  
 K. Brandhorst,  S. T. Brown,  E. F. C. Byrd,  Arup K. Chakraborty,  
 G. K. L. Chan,  Chun-Min Chang,  Yunqing Chen,  C.-L. Cheng,  
 Siu Hung Chien,  D. M. Chipman,  D. L. Crittenden,  H. Dachsel,  
 R. J. Doerksen,  A. D. Dutoi,  R. G. Edgar,  J. Fosso-Tande,  
 L. Fusti-Molnar,  D. Ghosh,  A. Ghysels,  A. Golubeva-Zadorozhnaya,  
 J. Gonthier,  M. S. Gordon,  S. R. Gwaltney,  G. Hawkins,  J. E. Herr,  
 A. Heyden,  S. Hirata,  E. G. Hohenstein,  G. Kedziora,  F. J. Keil,  
 C. Kelley,  Jihan Kim,  R. A. King,  R. Z. Khaliullin,  P. P. Korambath,  
 W. Kurlancheek,  A. Laurent,  A. M. Lee,  M. S. Lee,  S. V. Levchenko,  
 Ching Yeh Lin,  D. Liotard,  E. Livshits,  R. C. Lochan,  I. Lotan,  
 L. A. Martinez-Martinez,  P. E. Maslen,  N. Nair,  D. P. O'Neill,  
 D. Neuhauser,  E. Neuscamman,  C. M. Oana,  R. Olivares-Amaya,  R. Olson,  
 T. M. Perrine,  B. Peters,  P. A. Pieniazek,  A. Prociuk,  Y. M. Rhee,  
 J. Ritchie,  M. A. Rohrdanz,  E. Rosta,  N. J. Russ,  H. F. Schaefer III,  
 M. W. Schmidt,  N. E. Schultz,  S. Sharma,  N. Shenvi,  C. D. Sherrill,  
 A. C. Simmonett,  A. Sodt,  T. Stein,  D. Stuck,  K. S. Thanthiriwatte,  
 V. Vanovschi,  L. Vogt,  Tao Wang,  A. Warshel,  M. A. Watson,  
 C. F. Williams,  Q. Wu,  X. Xu,  Jun Yang,  W. Zhang,  Yan Zhao

   Please cite Q-Chem as follows:
  "Software for the frontiers of quantum chemistry:
   An overview of developments in the Q-Chem 5 package"
   J. Chem. Phys. 155, 084801 (2021)
   https://doi.org/10.1063/5.0055522 (open access)

 Q-Chem 6.2.2 for Intel X86 EM64T Linux

 Parts of Q-Chem use Armadillo 9.900.5 (Nocturnal Misbehaviour).
 http://arma.sourceforge.net/

 Q-Chem begins on Tue Jan 14 14:54:54 2025  

 Host: compute-0-9.local
0

     Scratch files written to /scratch/keith/A0D0_2//
 Processing $rem in /home/keith/software/qchem/qchem_622/config/preferences:
 Processing $rem in /home/keith/.qchemrc:

 Checking the input file for inconsistencies... 	...done.

--------------------------------------------------------------
User input:
--------------------------------------------------------------
$molecule
0 1
O -1.47711 0.79517 1.11526
O 2.64679 -0.74818 0.92526
H 2.36179 0.16502 0.73726
H 3.13619 -0.83038 1.76726
H -1.59541 1.37509 1.88226
H -0.55821 0.73733 0.86726
O -2.95551 -1.17018 -1.28374
H -3.43731 -1.94648 -1.40774
H -2.44691 -1.32218 -0.47974
O 1.66419 1.07930 -0.83574
H 2.17359 1.93678 -0.75074
H 2.29709 0.58143 -1.36274
$end

$rem
method                    b3lyp 
basis                     cc-pv5z 
mem_total                 48000
mem_static                8000
thresh                    12
scf_convergence           8
xc_grid                   000075000302
max_scf_cycles            2000
symmetry                  false
sym_ignore                true
print_orbitals true
$end
gui                       2
molden_format true
--------------------------------------------------------------
 ----------------------------------------------------------------
             Standard Nuclear Orientation (Angstroms)
    I     Atom           X                Y                Z
 ----------------------------------------------------------------
    1      O      -1.4771100000     0.7951700000     1.1152600000
    2      O       2.6467900000    -0.7481800000     0.9252600000
    3      H       2.3617900000     0.1650200000     0.7372600000
    4      H       3.1361900000    -0.8303800000     1.7672600000
    5      H      -1.5954100000     1.3750900000     1.8822600000
    6      H      -0.5582100000     0.7373300000     0.8672600000
    7      O      -2.9555100000    -1.1701800000    -1.2837400000
    8      H      -3.4373100000    -1.9464800000    -1.4077400000
    9      H      -2.4469100000    -1.3221800000    -0.4797400000
   10      O       1.6641900000     1.0793000000    -0.8357400000
   11      H       2.1735900000     1.9367800000    -0.7507400000
   12      H       2.2970900000     0.5814300000    -1.3627400000
 ----------------------------------------------------------------
 Nuclear Repulsion Energy =         115.99221565 hartrees
 There are       20 alpha and       20 beta electrons
 Requested basis set is cc-pV5Z
 There are 204 shells and 804 basis functions

 Total QAlloc Memory Limit  48000 MB
 Mega-Array Size      7821 MB
 MEM_STATIC part      8000 MB


                       Distance Matrix (Angstroms)
             O (  1)   O (  2)   H (  3)   H (  4)   H (  5)   H (  6)
   O (  2)  4.407333
   H (  3)  3.908596  0.974938
   H (  4)  4.934577  0.977360  1.628317
   H (  5)  0.968809  4.839461  4.293568  5.221624
   H (  6)  0.953534  3.533006  2.978395  4.112944  1.585165
   O (  7)  3.435618  6.036848  5.843020  6.821501  4.283903  3.743320
   H (  8)  4.210054  6.625337  6.533683  7.384931  5.024890  4.546172
   H (  9)  2.822713  5.315005  5.178460  6.038367  3.685019  3.102125
   O ( 10)  3.708759  2.721453  1.948559  3.548136  4.254410  2.820676
   H ( 11)  4.255918  3.200298  2.321357  3.863172  4.631797  3.394015
   H ( 12)  4.520039  2.669288  2.141864  3.534713  5.129471  3.626285
             O (  7)   H (  8)   H (  9)   O ( 10)   H ( 11)
   H (  8)  0.922035
   H (  9)  0.963428  1.493930
   O ( 10)  5.157760  5.958845  4.774409
   H ( 11)  6.020378  6.855185  5.660679  1.000992
   H ( 12)  5.537525  6.267033  5.187384  0.962375  1.492237

 A cutoff of  1.0D-12 yielded  13150 shell pairs
 There are    175362 function pairs (    292621 Cartesian)
 Smallest overlap matrix eigenvalue = 4.17E-05

 Scale SEOQF with 1.000000e-01/1.000000e-01/1.000000e-01

 Standard Electronic Orientation quadrupole field applied
 Nucleus-field energy     =     0.0000000054 hartrees
 Guess from superposition of atomic densities
 Warning:  Energy on first SCF cycle will be non-variational
 SAD guess density has 40.000000 electrons

 -----------------------------------------------------------------------
  General SCF calculation program by
  Eric Jon Sundstrom, Paul Horn, Yuezhi Mao, Dmitri Zuev, Alec White,
  David Stuck, Shaama M.S., Shane Yost, Joonho Lee, David Small,
  Daniel Levine, Susi Lehtola, Hugh Burton, Evgeny Epifanovsky,
  Bang C. Huynh
 -----------------------------------------------------------------------
 Exchange:     0.2000 Hartree-Fock + 0.0800 Slater + 0.7200 B88
 Correlation:  0.1900 VWN1RPA + 0.8100 LYP
 Using Euler-Maclaurin-Lebedev (75,302) quadrature formula
 A restricted SCF calculation will be
 performed using DIIS
 SCF converges when DIIS error is below 1.0e-08
 ---------------------------------------
  Cycle       Energy         DIIS error
 ---------------------------------------
    1    -305.7142761483      8.16e-03  
    2    -305.6134355057      2.21e-03  
    3    -305.2739757953      3.32e-03  
    4    -305.8935107531      6.21e-05  
    5    -305.8936695589      3.62e-05  
    6    -305.8937209292      1.72e-05  
    7    -305.8937359782      2.01e-06  
    8    -305.8937361762      8.58e-07  
    9    -305.8937362138      1.47e-07  
   10    -305.8937362149      2.25e-08  
   11    -305.8937362149      4.42e-09  Convergence criterion met
 ---------------------------------------
 SCF time:   CPU 25806.44s  wall 825.00s 
 SCF   energy =  -305.89373621
 Total energy =  -305.89373621

 --------------------------------------------------------------

                    Orbital Energies (a.u.)
 --------------------------------------------------------------

 Alpha MOs
 -- Occupied --
-19.1653 -19.1210 -19.1203 -19.1058  -1.0442  -1.0053  -1.0032  -0.9969
 -0.5494  -0.5404  -0.5366  -0.5211  -0.4361  -0.3779  -0.3761  -0.3755
 -0.3492  -0.3127  -0.3109  -0.3001
 -- Virtual --
 -0.0314   0.0072   0.0202   0.0287   0.0515   0.0814   0.0958   0.1203
  0.1787   0.1994   0.2057   0.2134   0.2160   0.2288   0.2399   0.2452
  0.2626   0.2724   0.2747   0.2833   0.2921   0.3020   0.3209   0.3287
  0.3331   0.3414   0.3569   0.3664   0.3798   0.4041   0.4195   0.4331
  0.4359   0.4583   0.4657   0.5019   0.5119   0.5295   0.5524   0.5662
  0.5755   0.5824   0.6313   0.6464   0.6705   0.6732   0.6917   0.7048
  0.7135   0.7209   0.7372   0.7455   0.7703   0.7770   0.7962   0.8052
  0.8122   0.8186   0.8319   0.8511   0.8692   0.9070   0.9200   0.9403
  0.9856   1.0052   1.0082   1.0218   1.0354   1.0482   1.0554   1.0699
  1.0840   1.0984   1.1123   1.1187   1.1382   1.1460   1.1628   1.1817
  1.1837   1.2027   1.2435   1.2546   1.2756   1.2868   1.3129   1.3456
  1.3653   1.3810   1.3956   1.4123   1.4548   1.4765   1.4868   1.4987
  1.5095   1.5132   1.5371   1.5501   1.5577   1.5664   1.5820   1.6100
  1.6132   1.6242   1.6385   1.6593   1.6799   1.6965   1.7027   1.7128
  1.7208   1.7348   1.7467   1.7502   1.7631   1.7722   1.7856   1.7935
  1.8111   1.8216   1.8270   1.8357   1.8377   1.8605   1.8758   1.8833
  1.8975   1.9272   1.9372   1.9428   1.9725   1.9917   2.0083   2.0209
  2.0262   2.0525   2.0760   2.0808   2.1090   2.1133   2.1549   2.1840
  2.2382   2.2593   2.2710   2.2947   2.3132   2.3169   2.3288   2.3530
  2.3744   2.3825   2.3921   2.4352   2.4451   2.4645   2.5040   2.5100
  2.5250   2.5405   2.5617   2.6225   2.6326   2.6413   2.6465   2.6576
  2.6767   2.6945   2.7072   2.7212   2.7276   2.7415   2.7513   2.7620
  2.7852   2.8634   2.8684   2.8992   2.9064   2.9248   2.9405   2.9488
  2.9582   2.9826   3.0062   3.0289   3.0825   3.1008   3.1397   3.1642
  3.1920   3.2051   3.2229   3.2388   3.2986   3.3079   3.3166   3.3422
  3.3571   3.3729   3.4053   3.4259   3.4538   3.4735   3.4865   3.4999
  3.5073   3.5129   3.5273   3.5389   3.5459   3.5622   3.5744   3.5847
  3.6380   3.6712   3.6958   3.7114   3.7503   3.7783   3.7893   3.8231
  3.8317   3.8438   3.8460   3.8842   3.9143   3.9339   3.9697   3.9869
  4.0374   4.0466   4.0641   4.0721   4.0805   4.0924   4.1199   4.2141
  4.3009   4.3074   4.3156   4.3281   4.3537   4.3894   4.4071   4.4146
  4.4251   4.4419   4.4465   4.4652   4.4664   4.4716   4.4831   4.4926
  4.4984   4.5182   4.5285   4.5411   4.5525   4.5666   4.5714   4.5910
  4.5976   4.6251   4.6481   4.6648   4.6829   4.6973   4.7123   4.7254
  4.7348   4.7626   4.7672   4.7776   4.7862   4.7903   4.8036   4.8141
  4.8296   4.8308   4.8531   4.8803   4.8855   4.8890   4.9226   4.9629
  4.9940   5.0066   5.0193   5.0518   5.0761   5.0849   5.0964   5.1808
  5.2048   5.2471   5.2761   5.2924   5.3320   5.3570   5.3630   5.3799
  5.3854   5.4035   5.4084   5.4223   5.4603   5.5111   5.5516   5.5883
  5.6434   5.6807   5.7014   5.7071   5.7096   5.7514   5.7727   5.9074
  5.9167   5.9216   5.9908   6.0160   6.0220   6.0291   6.1349   6.1899
  6.2423   6.2673   6.2680   6.2816   6.2851   6.2957   6.3037   6.3229
  6.3427   6.3547   6.3865   6.4307   6.5043   6.5345   6.5425   6.5619
  6.5745   6.6079   6.6292   6.6777   6.7026   6.7201   6.7470   6.7558
  6.7578   6.7673   6.8112   6.8140   6.8225   6.8297   6.8817   6.8931
  6.9177   6.9242   6.9385   6.9560   6.9708   6.9990   7.0116   7.0373
  7.0674   7.0858   7.1230   7.1433   7.1767   7.1779   7.2065   7.2588
  7.2832   7.3108   7.3195   7.3623   7.4108   7.4386   7.4538   7.4658
  7.4715   7.4883   7.5234   7.5476   7.6350   7.6472   7.6662   7.7358
  7.7690   7.7847   7.7986   7.8349   7.8576   7.8593   7.8735   7.8821
  7.8862   7.9108   7.9488   8.0493   8.2390   8.2617   8.2941   8.3540
  8.4601   8.5912   8.6122   8.6469   8.9327   8.9643   8.9987   9.0173
  9.0357   9.0700   9.0768   9.1063   9.1077   9.1296   9.1417   9.1927
  9.6033   9.6335   9.6513   9.6784   9.7219   9.7385   9.7557   9.7741
  9.7829   9.8126   9.8148   9.8313  11.6734  11.6912  11.7068  11.7202
 11.7395  11.7589  11.7669  11.7725  11.8036  11.8285  11.8457  11.8689
 11.8923  11.8966  11.9314  11.9763  11.9993  12.0037  12.0151  12.0351
 12.0729  12.1167  12.1202  12.1383  12.1424  12.1432  12.1505  12.1621
 12.1659  12.1788  12.2112  12.2133  12.2148  12.2246  12.2280  12.2325
 12.2405  12.2429  12.2531  12.2546  12.2713  12.3490  12.3520  12.3530
 12.3552  12.3893  12.3924  12.3971  12.4001  12.4137  12.4588  12.4664
 12.4740  12.4860  12.4896  12.5139  12.5325  12.5427  12.5509  12.5583
 12.6150  12.6274  12.6397  12.6516  12.6769  12.6945  12.7185  12.7608
 12.7730  12.8039  12.8196  12.8301  12.8338  12.8672  12.9138  12.9321
 12.9492  12.9666  12.9795  12.9874  13.0139  13.0229  13.0303  13.0816
 13.1125  13.1237  13.1923  13.2201  13.2224  13.2356  13.2563  13.2873
 13.3146  13.3291  13.3354  13.3585  13.3662  13.3783  13.3847  13.3963
 13.4069  13.4165  13.4369  13.4404  13.4547  13.4648  13.4689  13.4756
 13.5057  13.5134  13.5138  13.5399  13.5783  13.5816  13.5881  13.6231
 13.6363  13.6382  13.6685  13.6951  13.7094  13.7205  13.7972  13.8028
 13.8168  13.8179  13.8563  13.8668  13.9191  13.9406  13.9492  13.9989
 14.0198  14.0262  14.0577  14.0784  14.1060  14.1290  14.1459  14.1666
 14.1902  14.2698  14.2804  14.2917  14.2995  14.3192  14.3627  14.3729
 14.4056  14.4900  14.5689  14.5939  14.5975  14.7879  14.8136  14.8591
 15.1018  15.1391  15.1610  15.1799  15.2527  15.3187  15.3423  15.4470
 15.4994  15.5255  15.5535  15.6252  15.6518  15.7245  15.7980  15.8280
 15.8663  15.8832  15.9214  15.9344  15.9441  16.0233  16.0480  16.0486
 16.0597  16.0732  16.0875  16.0943  16.1109  16.1219  16.1376  16.1674
 16.1883  16.2052  16.2170  16.2217  16.2458  16.2575  16.2685  16.2798
 16.2818  16.3341  16.3485  16.3743  16.3817  16.4028  16.4540  16.5925
 16.6457  16.8390  16.9196  16.9229  16.9289  16.9430  16.9999  17.0408
 17.0447  17.0720  17.1202  17.1545  17.1806  17.2077  17.2296  17.2399
 17.2953  17.3005  17.3219  17.3576  17.3795  17.4746  17.5633  17.5641
 17.5971  17.6107  17.6269  17.6332  17.7157  17.7446  17.8202  17.8942
 17.9475  17.9949  18.0451  18.0759  18.1307  18.1320  18.1526  18.1887
 18.1944  18.2668  18.2714  18.2757  18.2857  18.3013  18.3262  18.3751
 18.4257  18.4367  18.4606  18.4719  18.5236  18.5329  18.6225  18.6495
 18.7390  18.8550  18.8562  18.9001  18.9489  18.9668  19.0029  19.0236
 19.1554  19.2650  19.2963  19.3148  19.3445  19.3564  19.3854  19.4053
 19.4430  19.4496  19.4659  19.5072  19.5089  19.5233  19.5652  19.5914
 19.6135  19.6525  19.6559  19.6915  19.7317  19.8150  19.9459  19.9950
 20.5498  20.5935  20.6820  20.7131  20.8129  20.8468  20.9806  21.1711
 21.8167  21.8270  21.8443  21.8548  21.8651  21.9079  21.9164  21.9779
 22.2164  22.2430  22.2469  22.3060  22.3814  22.6629  22.7586  22.8422
 22.9384  22.9436  22.9837  23.0295  23.0795  23.0917  23.1974  23.2458
 23.3115  23.3410  23.8776  23.9224  24.0720  24.3198  24.4140  24.4940
 24.5313  24.6827  24.8558  24.9000  24.9830  25.0094  25.0411  25.2462
 25.6651  25.7680  26.1131  26.5944  63.9827  64.0918  64.1238  64.2899
 --------------------------------------------------------------


                        RESTRICTED (RHF) MOLECULAR ORBITAL COEFFICIENTS
                         1         2         3         4         5         6
 eigenvalues:        -19.165   -19.121   -19.120   -19.106    -1.044    -1.005
   1  O 1   s        0.00001  -0.97846  -0.00001  -0.00000   0.00016  -0.01824
   2  O 1   s        0.00001  -0.03090   0.00001   0.00001  -0.00268   0.27692
   3  O 1   s        0.00002  -0.08501   0.00001   0.00001  -0.00012   0.00743
   4  O 1   s       -0.00008   0.01501  -0.00011  -0.00014  -0.00299   0.31861
   5  O 1   s       -0.00009   0.01738   0.00054   0.00070  -0.00326   0.42675
   6  O 1   s        0.00019   0.00403   0.00071   0.00022  -0.00054   0.16463
   7  O 1   px       0.00000  -0.00089   0.00000   0.00000  -0.00022   0.01711
   8  O 1   py       0.00000  -0.00056  -0.00000  -0.00000  -0.00009   0.01024
   9  O 1   pz      -0.00000  -0.00059  -0.00000  -0.00000  -0.00006   0.01022
  10  O 1   px      -0.00001  -0.00049  -0.00003  -0.00001  -0.00037   0.02808
  11  O 1   py       0.00000  -0.00027   0.00001   0.00000  -0.00015   0.01677
  12  O 1   pz       0.00001  -0.00025   0.00002  -0.00000  -0.00012   0.01680
  13  O 1   px       0.00003   0.00694   0.00018   0.00009  -0.00039   0.04671
  14  O 1   py      -0.00004   0.00382  -0.00005   0.00000  -0.00023   0.02813
  15  O 1   pz      -0.00010   0.00359  -0.00008   0.00000  -0.00010   0.02800
  16  O 1   px       0.00041   0.00160   0.00081   0.00040  -0.00112   0.02997
  17  O 1   py      -0.00007   0.00052  -0.00030  -0.00009   0.00034   0.01918
  18  O 1   pz      -0.00039   0.00046  -0.00047  -0.00012   0.00109   0.02008
  19  O 1   px       0.00013   0.00006   0.00017   0.00005  -0.00032   0.00365
  20  O 1   py      -0.00010   0.00043  -0.00006  -0.00006  -0.00008   0.00238
  21  O 1   pz      -0.00013   0.00054  -0.00011  -0.00018   0.00030   0.00299
  22  O 1   d 1      0.00000   0.00004  -0.00000   0.00000  -0.00000   0.00001
  23  O 1   d 2      0.00000  -0.00022  -0.00000   0.00001  -0.00000   0.00023
  24  O 1   d 3     -0.00000  -0.00001  -0.00000  -0.00000   0.00000  -0.00002
  25  O 1   d 4     -0.00000   0.00014   0.00000   0.00000   0.00000  -0.00008
  26  O 1   d 5      0.00000  -0.00013   0.00000  -0.00000  -0.00001   0.00017
  27  O 1   d 1     -0.00001  -0.00005   0.00000  -0.00000   0.00001  -0.00016
  28  O 1   d 2     -0.00000   0.00037   0.00000  -0.00002  -0.00003   0.00191
  29  O 1   d 3      0.00000   0.00000   0.00001   0.00000  -0.00000  -0.00006
  30  O 1   d 4      0.00001  -0.00020   0.00000   0.00000   0.00001  -0.00096
  31  O 1   d 5     -0.00001   0.00023  -0.00001   0.00001  -0.00000   0.00121
  32  O 1   d 1      0.00005  -0.00101  -0.00003  -0.00002  -0.00006  -0.00112
  33  O 1   d 2     -0.00004   0.00239  -0.00002   0.00010   0.00002   0.00849
  34  O 1   d 3     -0.00003   0.00005  -0.00008   0.00001   0.00002   0.00001
  35  O 1   d 4     -0.00005  -0.00225  -0.00005  -0.00003   0.00002  -0.00463
  36  O 1   d 5      0.00006   0.00169   0.00013  -0.00001  -0.00006   0.00543
  37  O 1   d 1      0.00005   0.00007  -0.00007  -0.00009  -0.00023  -0.00096
  38  O 1   d 2     -0.00009  -0.00041  -0.00009  -0.00001   0.00033   0.00583
  39  O 1   d 3     -0.00008  -0.00006  -0.00016   0.00001   0.00028   0.00022
  40  O 1   d 4     -0.00011   0.00026  -0.00012  -0.00011   0.00028  -0.00327
  41  O 1   d 5      0.00016  -0.00014   0.00024   0.00011  -0.00039   0.00236
  42  O 1   f 1     -0.00000   0.00004   0.00000   0.00000   0.00000  -0.00002
  43  O 1   f 2      0.00000   0.00002  -0.00000  -0.00000   0.00000  -0.00002
  44  O 1   f 3      0.00000  -0.00009  -0.00000  -0.00000   0.00000   0.00003
  45  O 1   f 4     -0.00000  -0.00005  -0.00000  -0.00000  -0.00000   0.00003
  46  O 1   f 5      0.00000   0.00006   0.00000  -0.00000   0.00000  -0.00002
  47  O 1   f 6      0.00000   0.00012   0.00000   0.00000   0.00000  -0.00004
  48  O 1   f 7     -0.00000  -0.00010  -0.00000  -0.00000  -0.00000   0.00004
  49  O 1   f 1      0.00001  -0.00030  -0.00001  -0.00001   0.00000  -0.00039
  50  O 1   f 2     -0.00000  -0.00017   0.00001   0.00000  -0.00001  -0.00012
  51  O 1   f 3     -0.00001   0.00072  -0.00000   0.00001  -0.00001   0.00147
  52  O 1   f 4      0.00000   0.00041   0.00001   0.00001  -0.00000   0.00063
  53  O 1   f 5     -0.00000  -0.00053  -0.00001   0.00000  -0.00000  -0.00103
  54  O 1   f 6     -0.00000  -0.00095  -0.00001  -0.00001   0.00001  -0.00177
  55  O 1   f 7      0.00001   0.00078   0.00002   0.00000  -0.00001   0.00148
  56  O 1   f 1      0.00004   0.00009  -0.00003  -0.00005  -0.00007  -0.00060
  57  O 1   f 2     -0.00002   0.00008   0.00001   0.00004  -0.00001  -0.00039
  58  O 1   f 3     -0.00002  -0.00033  -0.00002   0.00002   0.00008   0.00210
  59  O 1   f 4      0.00003  -0.00014   0.00003   0.00001  -0.00008   0.00099
  60  O 1   f 5     -0.00001   0.00020  -0.00003   0.00001  -0.00004  -0.00139
  61  O 1   f 6     -0.00003   0.00038  -0.00002  -0.00006   0.00010  -0.00241
  62  O 1   f 7      0.00004  -0.00029   0.00005  -0.00001  -0.00007   0.00204
  63  O 1   g 1     -0.00000  -0.00001   0.00000   0.00000   0.00000  -0.00001
  64  O 1   g 2      0.00000  -0.00003   0.00000  -0.00000  -0.00000  -0.00004
  65  O 1   g 3      0.00000  -0.00003   0.00000  -0.00000  -0.00000  -0.00002
  66  O 1   g 4     -0.00000   0.00006  -0.00000  -0.00000  -0.00000   0.00007
  67  O 1   g 5     -0.00000  -0.00001  -0.00000  -0.00000  -0.00000  -0.00000
  68  O 1   g 6     -0.00000   0.00005   0.00000   0.00000   0.00000   0.00006
  69  O 1   g 7      0.00000  -0.00012  -0.00000  -0.00000   0.00000  -0.00014
  70  O 1   g 8     -0.00000  -0.00003  -0.00000  -0.00000  -0.00000  -0.00004
  71  O 1   g 9     -0.00000   0.00009   0.00000  -0.00000   0.00000   0.00011
  72  O 1   g 1      0.00001  -0.00005  -0.00001  -0.00001  -0.00001  -0.00002
  73  O 1   g 2     -0.00001   0.00011   0.00000   0.00000   0.00001  -0.00022
  74  O 1   g 3     -0.00000  -0.00008   0.00000   0.00001  -0.00000  -0.00014
  75  O 1   g 4      0.00000  -0.00002  -0.00000   0.00001  -0.00000   0.00041
  76  O 1   g 5      0.00000  -0.00006   0.00000  -0.00000   0.00000  -0.00007
  77  O 1   g 6      0.00001   0.00002   0.00001   0.00000  -0.00003   0.00031
  78  O 1   g 7     -0.00000   0.00006  -0.00000  -0.00000  -0.00000  -0.00084
  79  O 1   g 8     -0.00001  -0.00001  -0.00001  -0.00001   0.00003  -0.00024
  80  O 1   g 9      0.00001  -0.00002   0.00001   0.00000  -0.00002   0.00060
  81  O 1   h 1      0.00000  -0.00002  -0.00000  -0.00000  -0.00000  -0.00001
  82  O 1   h 2     -0.00000   0.00004   0.00000   0.00000   0.00000   0.00004
  83  O 1   h 3     -0.00000  -0.00002   0.00000  -0.00000   0.00000  -0.00008
  84  O 1   h 4      0.00000  -0.00004  -0.00000   0.00000  -0.00000  -0.00004
  85  O 1   h 5      0.00000   0.00001  -0.00000  -0.00000  -0.00000   0.00003
  86  O 1   h 6     -0.00000  -0.00006  -0.00000  -0.00000   0.00000  -0.00013
  87  O 1   h 7      0.00000  -0.00001   0.00000  -0.00000   0.00000   0.00002
  88  O 1   h 8      0.00000   0.00000   0.00000  -0.00000  -0.00000  -0.00003
  89  O 1   h 9     -0.00000   0.00003  -0.00000  -0.00000   0.00000  -0.00001
  90  O 1   h10     -0.00000  -0.00004  -0.00000   0.00000   0.00000  -0.00004
  91  O 1   h11      0.00000   0.00004   0.00000  -0.00000  -0.00000   0.00010
  92  O 2   s       -0.00002  -0.00003   0.97844   0.00000   0.00249  -0.00010
  93  O 2   s       -0.00000  -0.00001   0.03085   0.00000  -0.03648   0.00155
  94  O 2   s       -0.00001  -0.00002   0.08490   0.00000  -0.00095   0.00004
  95  O 2   s        0.00000   0.00004  -0.01451  -0.00002  -0.04220   0.00169
  96  O 2   s        0.00024   0.00028  -0.01677   0.00010  -0.05383   0.00291
  97  O 2   s       -0.00011   0.00004  -0.00220   0.00021  -0.02292   0.00176
  98  O 2   px      -0.00000   0.00000   0.00026  -0.00000  -0.00006   0.00001
  99  O 2   py      -0.00000   0.00000   0.00085   0.00000  -0.00299   0.00009
 100  O 2   pz       0.00000  -0.00000   0.00074   0.00000  -0.00082   0.00008
 101  O 2   px       0.00001   0.00001   0.00006  -0.00000  -0.00015   0.00002
 102  O 2   py      -0.00002  -0.00001   0.00056  -0.00000  -0.00488   0.00014
 103  O 2   pz       0.00001   0.00001   0.00029  -0.00000  -0.00141   0.00012
 104  O 2   px      -0.00013  -0.00008  -0.00105   0.00001  -0.00032   0.00003
 105  O 2   py       0.00024   0.00019  -0.00703  -0.00000  -0.00767   0.00027
 106  O 2   pz      -0.00015  -0.00010  -0.00429   0.00002  -0.00256   0.00030
 107  O 2   px      -0.00000  -0.00008  -0.00035   0.00000   0.00058   0.00030
 108  O 2   py       0.00034   0.00008  -0.00092   0.00005  -0.00612   0.00044
 109  O 2   pz      -0.00006  -0.00005  -0.00121   0.00005   0.00082   0.00053
 110  O 2   px      -0.00008   0.00001  -0.00016   0.00001  -0.00014  -0.00005
 111  O 2   py       0.00004   0.00001   0.00005   0.00001  -0.00075   0.00009
 112  O 2   pz      -0.00008  -0.00002  -0.00027   0.00003  -0.00048   0.00027
 113  O 2   d 1      0.00000   0.00000  -0.00012   0.00000   0.00002  -0.00000
 114  O 2   d 2      0.00000  -0.00000  -0.00008  -0.00000   0.00001   0.00000
 115  O 2   d 3     -0.00000   0.00000   0.00004  -0.00000   0.00001  -0.00000
 116  O 2   d 4     -0.00000  -0.00000   0.00020  -0.00000  -0.00002   0.00000
 117  O 2   d 5      0.00000   0.00000  -0.00012  -0.00000   0.00004  -0.00000
 118  O 2   d 1     -0.00001  -0.00000   0.00017  -0.00000   0.00018  -0.00001
 119  O 2   d 2     -0.00001   0.00000   0.00007   0.00000   0.00015  -0.00000
 120  O 2   d 3      0.00001  -0.00001  -0.00007   0.00000  -0.00004   0.00000
 121  O 2   d 4      0.00000   0.00000  -0.00032  -0.00000  -0.00025   0.00000
 122  O 2   d 5     -0.00001  -0.00000   0.00022   0.00000   0.00020  -0.00000
 123  O 2   d 1      0.00000  -0.00004   0.00203  -0.00000   0.00064  -0.00004
 124  O 2   d 2      0.00003  -0.00004   0.00196  -0.00000   0.00036  -0.00000
 125  O 2   d 3     -0.00011  -0.00003  -0.00023   0.00001   0.00010   0.00002
 126  O 2   d 4     -0.00005  -0.00002  -0.00248   0.00001  -0.00086   0.00010
 127  O 2   d 5     -0.00008  -0.00006   0.00152   0.00000   0.00090  -0.00004
 128  O 2   d 1      0.00003   0.00003  -0.00034  -0.00002   0.00049  -0.00003
 129  O 2   d 2     -0.00002   0.00002  -0.00048  -0.00001   0.00108   0.00005
 130  O 2   d 3     -0.00005   0.00001   0.00009   0.00001   0.00007   0.00001
 131  O 2   d 4     -0.00009   0.00001   0.00046   0.00002  -0.00051   0.00003
 132  O 2   d 5     -0.00016   0.00003  -0.00024  -0.00001   0.00059  -0.00015
 133  O 2   f 1     -0.00000   0.00000  -0.00006   0.00000   0.00000  -0.00000
 134  O 2   f 2     -0.00000  -0.00000   0.00001  -0.00000  -0.00000   0.00000
 135  O 2   f 3     -0.00000   0.00000  -0.00008  -0.00000   0.00000   0.00000
 136  O 2   f 4      0.00000  -0.00000   0.00007  -0.00000  -0.00000   0.00000
 137  O 2   f 5      0.00000   0.00000   0.00010  -0.00000  -0.00000  -0.00000
 138  O 2   f 6      0.00000   0.00000   0.00009  -0.00000  -0.00001  -0.00000
 139  O 2   f 7      0.00000  -0.00000   0.00008  -0.00000  -0.00000  -0.00000
 140  O 2   f 1     -0.00000  -0.00001   0.00047  -0.00000   0.00013  -0.00000
 141  O 2   f 2      0.00001   0.00000  -0.00006   0.00000  -0.00007  -0.00000
 142  O 2   f 3      0.00000  -0.00001   0.00061   0.00000   0.00013  -0.00001
 143  O 2   f 4     -0.00000   0.00001  -0.00057   0.00000  -0.00013   0.00000
 144  O 2   f 5     -0.00001  -0.00000  -0.00086   0.00000  -0.00021   0.00002
 145  O 2   f 6     -0.00001   0.00000  -0.00071   0.00000  -0.00014   0.00001
 146  O 2   f 7      0.00000   0.00001  -0.00067   0.00000  -0.00020   0.00001
 147  O 2   f 1     -0.00006   0.00002  -0.00016   0.00000   0.00015  -0.00006
 148  O 2   f 2     -0.00005  -0.00000   0.00014   0.00000  -0.00031  -0.00001
 149  O 2   f 3     -0.00002   0.00001  -0.00013  -0.00000  -0.00008  -0.00003
 150  O 2   f 4      0.00000   0.00000   0.00031   0.00001  -0.00025   0.00000
 151  O 2   f 5      0.00001  -0.00000   0.00036   0.00000  -0.00009   0.00003
 152  O 2   f 6      0.00004  -0.00001   0.00037   0.00000  -0.00044   0.00001
 153  O 2   f 7     -0.00001  -0.00002   0.00032   0.00001  -0.00032   0.00003
 154  O 2   g 1      0.00000   0.00000  -0.00008  -0.00000  -0.00001   0.00000
 155  O 2   g 2     -0.00000   0.00000  -0.00002  -0.00000   0.00000   0.00000
 156  O 2   g 3      0.00000   0.00000  -0.00001  -0.00000  -0.00000   0.00000
 157  O 2   g 4     -0.00000   0.00000  -0.00004  -0.00000  -0.00000   0.00000
 158  O 2   g 5     -0.00000   0.00000  -0.00004  -0.00000  -0.00001   0.00000
 159  O 2   g 6     -0.00000  -0.00000  -0.00007   0.00000  -0.00001   0.00000
 160  O 2   g 7     -0.00000   0.00000  -0.00011   0.00000  -0.00002   0.00000
 161  O 2   g 8     -0.00000  -0.00000   0.00001   0.00000   0.00000  -0.00000
 162  O 2   g 9     -0.00000   0.00000  -0.00004   0.00000  -0.00001  -0.00000
 163  O 2   g 1     -0.00001  -0.00000   0.00001   0.00000  -0.00011   0.00001
 164  O 2   g 2      0.00002  -0.00000   0.00007   0.00000  -0.00009  -0.00000
 165  O 2   g 3      0.00001  -0.00000   0.00014   0.00000  -0.00007   0.00000
 166  O 2   g 4      0.00002  -0.00000   0.00000   0.00000  -0.00010  -0.00000
 167  O 2   g 5      0.00000   0.00000   0.00009   0.00000  -0.00003   0.00000
 168  O 2   g 6      0.00000   0.00000   0.00003   0.00000  -0.00004   0.00000
 169  O 2   g 7      0.00000  -0.00001   0.00006   0.00000  -0.00008   0.00001
 170  O 2   g 8      0.00002  -0.00000   0.00012  -0.00000   0.00002   0.00001
 171  O 2   g 9      0.00001  -0.00000   0.00006  -0.00000  -0.00004   0.00001
 172  O 2   h 1      0.00000  -0.00000   0.00001  -0.00000  -0.00000   0.00000
 173  O 2   h 2      0.00000  -0.00000   0.00005  -0.00000   0.00001   0.00000
 174  O 2   h 3     -0.00000  -0.00000   0.00003   0.00000  -0.00001   0.00000
 175  O 2   h 4      0.00000  -0.00000   0.00006   0.00000  -0.00000   0.00000
 176  O 2   h 5      0.00000  -0.00000   0.00001  -0.00000  -0.00001   0.00000
 177  O 2   h 6     -0.00000   0.00000   0.00005  -0.00000   0.00001  -0.00000
 178  O 2   h 7     -0.00000   0.00000  -0.00003   0.00000  -0.00001  -0.00000
 179  O 2   h 8     -0.00000   0.00000  -0.00001  -0.00000  -0.00000   0.00000
 180  O 2   h 9      0.00000  -0.00000  -0.00001  -0.00000  -0.00000   0.00000
 181  O 2   h10     -0.00000  -0.00000   0.00000  -0.00000   0.00000   0.00000
 182  O 2   h11      0.00000   0.00000   0.00004  -0.00000   0.00002  -0.00000
 183  H 1   s        0.00002  -0.00000  -0.00017   0.00000  -0.00432   0.00012
 184  H 1   s       -0.00003   0.00008  -0.00216  -0.00001  -0.00911   0.00030
 185  H 1   s       -0.00049  -0.00024   0.01137  -0.00004  -0.01398  -0.00011
 186  H 1   s        0.00017  -0.00029   0.00188  -0.00006  -0.00241   0.00011
 187  H 1   s       -0.00000  -0.00002  -0.00015   0.00000   0.00020   0.00030
 188  H 1   px      -0.00001  -0.00000  -0.00006  -0.00000  -0.00007   0.00001
 189  H 1   py       0.00002  -0.00000   0.00021  -0.00000   0.00020  -0.00001
 190  H 1   pz      -0.00002   0.00000  -0.00004   0.00000   0.00000   0.00000
 191  H 1   px       0.00004   0.00001  -0.00003   0.00000  -0.00012  -0.00001
 192  H 1   py      -0.00009  -0.00002   0.00003   0.00000   0.00050  -0.00003
 193  H 1   pz       0.00009   0.00000  -0.00002  -0.00000   0.00007   0.00002
 194  H 1   px      -0.00025  -0.00009   0.00260  -0.00000   0.00011  -0.00001
 195  H 1   py       0.00041   0.00021  -0.00865   0.00001   0.00006   0.00005
 196  H 1   pz      -0.00025  -0.00003   0.00162   0.00000   0.00107  -0.00005
 197  H 1   px      -0.00039  -0.00003   0.00082   0.00001  -0.00037  -0.00018
 198  H 1   py       0.00029   0.00023  -0.00229   0.00003  -0.00066  -0.00006
 199  H 1   pz      -0.00042  -0.00008   0.00085  -0.00001  -0.00125  -0.00012
 200  H 1   d 1     -0.00001  -0.00000   0.00012  -0.00000   0.00006  -0.00000
 201  H 1   d 2      0.00001  -0.00000   0.00004   0.00000   0.00007  -0.00001
 202  H 1   d 3     -0.00002  -0.00000   0.00012   0.00000   0.00004  -0.00000
 203  H 1   d 4     -0.00000   0.00000  -0.00002  -0.00000  -0.00001  -0.00000
 204  H 1   d 5     -0.00001  -0.00001   0.00019  -0.00000   0.00007   0.00000
 205  H 1   d 1      0.00005   0.00001  -0.00128   0.00000   0.00015   0.00001
 206  H 1   d 2      0.00000   0.00001  -0.00059  -0.00000   0.00013   0.00003
 207  H 1   d 3      0.00005   0.00002  -0.00134  -0.00000  -0.00010   0.00000
 208  H 1   d 4     -0.00000  -0.00000   0.00023   0.00000  -0.00020   0.00000
 209  H 1   d 5      0.00003   0.00006  -0.00211   0.00000   0.00013  -0.00001
 210  H 1   d 1      0.00007   0.00008  -0.00177  -0.00001   0.00033   0.00004
 211  H 1   d 2      0.00001   0.00005  -0.00144  -0.00000   0.00108   0.00003
 212  H 1   d 3      0.00011   0.00007  -0.00152   0.00000  -0.00027  -0.00003
 213  H 1   d 4      0.00009  -0.00003   0.00049   0.00000  -0.00033  -0.00005
 214  H 1   d 5      0.00001   0.00006  -0.00246   0.00000   0.00026  -0.00001
 215  H 1   f 1      0.00000  -0.00000   0.00017  -0.00000  -0.00002  -0.00000
 216  H 1   f 2     -0.00000   0.00000  -0.00005   0.00000  -0.00002   0.00000
 217  H 1   f 3     -0.00000  -0.00000   0.00016  -0.00000  -0.00003  -0.00000
 218  H 1   f 4     -0.00000  -0.00000  -0.00006  -0.00000   0.00001   0.00000
 219  H 1   f 5     -0.00000   0.00000  -0.00003  -0.00000   0.00003  -0.00000
 220  H 1   f 6     -0.00001   0.00000  -0.00007  -0.00000   0.00001  -0.00000
 221  H 1   f 7      0.00000  -0.00000  -0.00019   0.00000   0.00001   0.00000
 222  H 1   f 1      0.00001  -0.00003   0.00086  -0.00000   0.00000   0.00001
 223  H 1   f 2      0.00004   0.00001  -0.00032  -0.00000   0.00010   0.00001
 224  H 1   f 3      0.00002  -0.00002   0.00086  -0.00000  -0.00003   0.00002
 225  H 1   f 4      0.00003   0.00001  -0.00039  -0.00000   0.00006  -0.00000
 226  H 1   f 5      0.00001  -0.00000  -0.00028   0.00000  -0.00006   0.00000
 227  H 1   f 6      0.00006   0.00001  -0.00038  -0.00000  -0.00006   0.00001
 228  H 1   f 7      0.00005   0.00003  -0.00095  -0.00000   0.00006  -0.00000
 229  H 1   g 1     -0.00000  -0.00000   0.00015   0.00000  -0.00001   0.00000
 230  H 1   g 2     -0.00001  -0.00000   0.00004  -0.00000   0.00000  -0.00000
 231  H 1   g 3     -0.00001  -0.00000   0.00005   0.00000  -0.00001   0.00000
 232  H 1   g 4     -0.00001  -0.00000   0.00007   0.00000  -0.00001  -0.00000
 233  H 1   g 5     -0.00000  -0.00000   0.00007  -0.00000  -0.00001   0.00000
 234  H 1   g 6      0.00000  -0.00000  -0.00003  -0.00000   0.00001   0.00000
 235  H 1   g 7     -0.00000  -0.00000   0.00009  -0.00000  -0.00001   0.00000
 236  H 1   g 8     -0.00000   0.00000  -0.00006  -0.00000   0.00000   0.00000
 237  H 1   g 9      0.00000  -0.00000   0.00008  -0.00000  -0.00001  -0.00000
 238  H 2   s       -0.00000  -0.00000  -0.00018   0.00000  -0.00256   0.00012
 239  H 2   s       -0.00005  -0.00001  -0.00176   0.00001  -0.00579   0.00031
 240  H 2   s        0.00023   0.00006   0.00983  -0.00008  -0.00891  -0.00001
 241  H 2   s        0.00047   0.00018   0.00172  -0.00014  -0.00066  -0.00072
 242  H 2   s       -0.00001   0.00000   0.00025   0.00001  -0.00046   0.00001
 243  H 2   px       0.00000   0.00000   0.00009   0.00000   0.00010  -0.00001
 244  H 2   py       0.00000  -0.00000  -0.00000   0.00000  -0.00003   0.00000
 245  H 2   pz      -0.00000   0.00000   0.00017   0.00000   0.00017  -0.00001
 246  H 2   px      -0.00000  -0.00000   0.00003  -0.00000   0.00034  -0.00002
 247  H 2   py      -0.00001   0.00000  -0.00003   0.00000  -0.00013   0.00001
 248  H 2   pz       0.00001   0.00000   0.00004  -0.00000   0.00059  -0.00003
 249  H 2   px      -0.00008  -0.00000  -0.00393   0.00003   0.00093   0.00005
 250  H 2   py      -0.00000  -0.00000   0.00023  -0.00001  -0.00002  -0.00002
 251  H 2   pz      -0.00014  -0.00007  -0.00687   0.00004   0.00132   0.00015
 252  H 2   px      -0.00010  -0.00008  -0.00114   0.00004  -0.00009   0.00027
 253  H 2   py       0.00008   0.00004   0.00010  -0.00001  -0.00003  -0.00010
 254  H 2   pz      -0.00023  -0.00009  -0.00200   0.00005  -0.00008   0.00026
 255  H 2   d 1     -0.00000  -0.00000   0.00001  -0.00000   0.00002  -0.00000
 256  H 2   d 2     -0.00000   0.00000  -0.00000  -0.00000   0.00003  -0.00000
 257  H 2   d 3      0.00000  -0.00000  -0.00014   0.00000  -0.00005   0.00000
 258  H 2   d 4     -0.00000   0.00000  -0.00018   0.00000  -0.00006   0.00000
 259  H 2   d 5     -0.00000  -0.00000  -0.00003   0.00000  -0.00002  -0.00000
 260  H 2   d 1      0.00002   0.00000  -0.00006   0.00000  -0.00002  -0.00000
 261  H 2   d 2      0.00002  -0.00000  -0.00003   0.00000  -0.00007   0.00000
 262  H 2   d 3      0.00001   0.00002   0.00160  -0.00000  -0.00012  -0.00002
 263  H 2   d 4      0.00004  -0.00000   0.00194  -0.00001  -0.00021  -0.00001
 264  H 2   d 5      0.00002   0.00000   0.00044  -0.00000  -0.00004   0.00000
 265  H 2   d 1     -0.00002  -0.00002  -0.00006   0.00000  -0.00011   0.00003
 266  H 2   d 2     -0.00004  -0.00002  -0.00014   0.00001  -0.00016   0.00003
 267  H 2   d 3      0.00007   0.00003   0.00190  -0.00001  -0.00003  -0.00004
 268  H 2   d 4      0.00007   0.00004   0.00221  -0.00002  -0.00006  -0.00008
 269  H 2   d 5     -0.00000   0.00000   0.00068  -0.00001  -0.00003  -0.00003
 270  H 2   f 1     -0.00000   0.00000  -0.00000  -0.00000   0.00000   0.00000
 271  H 2   f 2     -0.00000  -0.00000   0.00002  -0.00000  -0.00001   0.00000
 272  H 2   f 3     -0.00000   0.00000   0.00001  -0.00000   0.00000  -0.00000
 273  H 2   f 4      0.00000  -0.00000  -0.00010   0.00000   0.00001   0.00000
 274  H 2   f 5     -0.00000   0.00000  -0.00026   0.00000   0.00002   0.00000
 275  H 2   f 6     -0.00000   0.00000  -0.00013   0.00000   0.00002  -0.00000
 276  H 2   f 7     -0.00000  -0.00000  -0.00002   0.00000   0.00000  -0.00000
 277  H 2   f 1     -0.00001   0.00000   0.00006  -0.00000   0.00002  -0.00000
 278  H 2   f 2     -0.00000   0.00001   0.00004  -0.00000   0.00009  -0.00001
 279  H 2   f 3      0.00001   0.00001   0.00004  -0.00000   0.00007  -0.00000
 280  H 2   f 4     -0.00000  -0.00001  -0.00046   0.00000   0.00000   0.00000
 281  H 2   f 5     -0.00003  -0.00001  -0.00126   0.00000   0.00004   0.00001
 282  H 2   f 6     -0.00001  -0.00000  -0.00054   0.00000   0.00001   0.00001
 283  H 2   f 7     -0.00000   0.00000  -0.00011   0.00000   0.00001   0.00000
 284  H 2   g 1      0.00000  -0.00000  -0.00001   0.00000  -0.00000   0.00000
 285  H 2   g 2      0.00000  -0.00000  -0.00001   0.00000  -0.00000   0.00000
 286  H 2   g 3      0.00000  -0.00000  -0.00001   0.00000  -0.00000   0.00000
 287  H 2   g 4      0.00000  -0.00000  -0.00001   0.00000  -0.00001   0.00000
 288  H 2   g 5     -0.00000   0.00000   0.00000   0.00000  -0.00000  -0.00000
 289  H 2   g 6      0.00000   0.00000   0.00018  -0.00000  -0.00001  -0.00000
 290  H 2   g 7      0.00000   0.00000   0.00013  -0.00000  -0.00001  -0.00000
 291  H 2   g 8      0.00000  -0.00000   0.00004  -0.00000  -0.00000  -0.00000
 292  H 2   g 9      0.00000  -0.00000   0.00001  -0.00000  -0.00000   0.00000
 293  H 3   s        0.00000   0.00020  -0.00000   0.00001  -0.00020   0.02241
 294  H 3   s       -0.00005   0.00170  -0.00002  -0.00002  -0.00037   0.05063
 295  H 3   s        0.00038  -0.00991   0.00040  -0.00016  -0.00186   0.05921
 296  H 3   s        0.00046  -0.00283   0.00026   0.00025  -0.00119   0.01615
 297  H 3   s        0.00008  -0.00025   0.00004   0.00003   0.00015   0.00259
 298  H 3   px      -0.00000   0.00002   0.00000   0.00000  -0.00000   0.00034
 299  H 3   py      -0.00000  -0.00012   0.00000   0.00000   0.00001  -0.00102
 300  H 3   pz      -0.00000  -0.00016  -0.00000  -0.00000   0.00001  -0.00136
 301  H 3   px       0.00000   0.00000  -0.00000  -0.00000  -0.00001   0.00101
 302  H 3   py       0.00001   0.00001  -0.00000  -0.00000   0.00002  -0.00318
 303  H 3   pz       0.00001   0.00001  -0.00000   0.00002   0.00002  -0.00433
 304  H 3   px       0.00003  -0.00074   0.00004  -0.00007  -0.00006   0.00253
 305  H 3   py      -0.00011   0.00492  -0.00008   0.00009   0.00031  -0.00381
 306  H 3   pz      -0.00015   0.00643  -0.00011   0.00007   0.00043  -0.00519
 307  H 3   px       0.00007  -0.00032   0.00003   0.00001   0.00009   0.00141
 308  H 3   py      -0.00014   0.00167  -0.00009  -0.00006   0.00045  -0.00021
 309  H 3   pz      -0.00022   0.00221  -0.00012  -0.00005   0.00042  -0.00046
 310  H 3   d 1      0.00000  -0.00001   0.00000  -0.00000   0.00000  -0.00014
 311  H 3   d 2     -0.00000   0.00019   0.00000  -0.00000  -0.00000   0.00058
 312  H 3   d 3     -0.00000   0.00009   0.00000   0.00000  -0.00000   0.00030
 313  H 3   d 4      0.00000  -0.00002   0.00000  -0.00000   0.00000  -0.00018
 314  H 3   d 5      0.00000  -0.00005  -0.00000  -0.00000   0.00000  -0.00019
 315  H 3   d 1     -0.00000   0.00018  -0.00000   0.00002  -0.00001  -0.00018
 316  H 3   d 2      0.00002  -0.00221   0.00001  -0.00002  -0.00005   0.00077
 317  H 3   d 3      0.00001  -0.00112   0.00001  -0.00002  -0.00002   0.00038
 318  H 3   d 4     -0.00000   0.00028  -0.00000   0.00003   0.00001  -0.00030
 319  H 3   d 5     -0.00001   0.00075  -0.00000   0.00001   0.00001  -0.00014
 320  H 3   d 1     -0.00003   0.00033  -0.00001   0.00002  -0.00000  -0.00039
 321  H 3   d 2      0.00007  -0.00262   0.00002  -0.00001  -0.00011   0.00060
 322  H 3   d 3      0.00004  -0.00142   0.00001   0.00000  -0.00004   0.00016
 323  H 3   d 4     -0.00004   0.00042  -0.00001   0.00002  -0.00005  -0.00060
 324  H 3   d 5     -0.00002   0.00102  -0.00001  -0.00001   0.00008   0.00005
 325  H 3   f 1      0.00000  -0.00005   0.00000   0.00000  -0.00000   0.00002
 326  H 3   f 2     -0.00000  -0.00004   0.00000  -0.00000  -0.00000   0.00006
 327  H 3   f 3     -0.00000   0.00025  -0.00000   0.00000   0.00001  -0.00012
 328  H 3   f 4      0.00000   0.00001  -0.00000  -0.00000  -0.00000  -0.00000
 329  H 3   f 5     -0.00000  -0.00003   0.00000  -0.00000  -0.00000   0.00004
 330  H 3   f 6      0.00000  -0.00017   0.00000  -0.00000  -0.00000   0.00007
 331  H 3   f 7     -0.00000   0.00001  -0.00000   0.00000  -0.00000  -0.00002
 332  H 3   f 1      0.00000  -0.00020  -0.00000   0.00000  -0.00000   0.00000
 333  H 3   f 2      0.00001  -0.00020  -0.00000  -0.00001   0.00002   0.00006
 334  H 3   f 3     -0.00002   0.00121   0.00000   0.00000   0.00001  -0.00029
 335  H 3   f 4     -0.00000   0.00004   0.00000  -0.00000  -0.00000   0.00002
 336  H 3   f 5      0.00001  -0.00018  -0.00000  -0.00001   0.00001   0.00007
 337  H 3   f 6      0.00001  -0.00081  -0.00000   0.00000  -0.00002   0.00015
 338  H 3   f 7     -0.00000   0.00012  -0.00000   0.00000  -0.00000  -0.00003
 339  H 3   g 1      0.00000  -0.00001  -0.00000   0.00000   0.00000   0.00000
 340  H 3   g 2     -0.00000   0.00007  -0.00000  -0.00000   0.00000  -0.00003
 341  H 3   g 3     -0.00000   0.00003  -0.00000   0.00000  -0.00000  -0.00004
 342  H 3   g 4      0.00000  -0.00011   0.00000   0.00000  -0.00000   0.00005
 343  H 3   g 5     -0.00000   0.00006  -0.00000   0.00000   0.00000  -0.00003
 344  H 3   g 6     -0.00000   0.00002   0.00000   0.00000  -0.00000  -0.00001
 345  H 3   g 7     -0.00000   0.00015  -0.00000  -0.00000   0.00000  -0.00006
 346  H 3   g 8      0.00000  -0.00003   0.00000  -0.00000   0.00000   0.00003
 347  H 3   g 9     -0.00000  -0.00001   0.00000   0.00000  -0.00000   0.00001
 348  H 4   s        0.00000   0.00025   0.00000   0.00000  -0.00032   0.02330
 349  H 4   s       -0.00002   0.00160   0.00002   0.00003  -0.00058   0.05226
 350  H 4   s       -0.00051  -0.01196  -0.00108  -0.00051  -0.00058   0.06156
 351  H 4   s       -0.00034  -0.00239  -0.00078  -0.00046  -0.00022   0.01833
 352  H 4   s       -0.00024   0.00011  -0.00010  -0.00000  -0.00076   0.00082
 353  H 4   px      -0.00001  -0.00023  -0.00001   0.00000   0.00002  -0.00172
 354  H 4   py       0.00000   0.00001   0.00000  -0.00000  -0.00000   0.00019
 355  H 4   pz       0.00000   0.00006   0.00000  -0.00000  -0.00001   0.00057
 356  H 4   px       0.00004   0.00024   0.00006  -0.00001  -0.00001  -0.00539
 357  H 4   py       0.00000  -0.00001  -0.00001  -0.00000  -0.00001   0.00054
 358  H 4   pz      -0.00002  -0.00007  -0.00001   0.00001   0.00003   0.00177
 359  H 4   px       0.00011   0.00896   0.00032   0.00024   0.00007  -0.00635
 360  H 4   py      -0.00010  -0.00032   0.00003   0.00006   0.00012   0.00147
 361  H 4   pz       0.00002  -0.00214  -0.00010  -0.00001  -0.00020   0.00312
 362  H 4   px       0.00025   0.00290   0.00055   0.00029  -0.00033  -0.00181
 363  H 4   py      -0.00010  -0.00025   0.00002   0.00006   0.00014   0.00094
 364  H 4   pz      -0.00003  -0.00095  -0.00011   0.00004  -0.00003   0.00193
 365  H 4   d 1     -0.00000  -0.00000   0.00000   0.00000   0.00000  -0.00012
 366  H 4   d 2      0.00000   0.00002   0.00000  -0.00000  -0.00000   0.00005
 367  H 4   d 3      0.00000  -0.00008  -0.00000  -0.00000  -0.00000  -0.00028
 368  H 4   d 4     -0.00000  -0.00007   0.00000  -0.00000  -0.00000  -0.00037
 369  H 4   d 5     -0.00000   0.00015   0.00000   0.00000  -0.00000   0.00058
 370  H 4   d 1      0.00002   0.00012  -0.00000  -0.00001  -0.00004  -0.00014
 371  H 4   d 2     -0.00001  -0.00011  -0.00001   0.00001   0.00002   0.00014
 372  H 4   d 3      0.00001   0.00120   0.00003   0.00001   0.00001  -0.00028
 373  H 4   d 4      0.00001   0.00107   0.00003   0.00001   0.00006  -0.00050
 374  H 4   d 5     -0.00001  -0.00237  -0.00007  -0.00002  -0.00004   0.00072
 375  H 4   d 1      0.00008   0.00027  -0.00003  -0.00006  -0.00007  -0.00032
 376  H 4   d 2     -0.00001  -0.00004   0.00003   0.00002  -0.00004   0.00037
 377  H 4   d 3      0.00002   0.00141   0.00003   0.00006  -0.00001  -0.00014
 378  H 4   d 4     -0.00005   0.00144   0.00004  -0.00002   0.00020  -0.00061
 379  H 4   d 5      0.00000  -0.00279  -0.00006  -0.00010  -0.00013   0.00050
 380  H 4   f 1     -0.00000  -0.00002  -0.00000   0.00000   0.00000   0.00004
 381  H 4   f 2      0.00000   0.00001   0.00000   0.00000  -0.00000  -0.00003
 382  H 4   f 3      0.00000  -0.00000   0.00000  -0.00000   0.00000   0.00001
 383  H 4   f 4      0.00000   0.00010   0.00000   0.00000   0.00000  -0.00008
 384  H 4   f 5     -0.00000  -0.00015  -0.00000  -0.00000   0.00000   0.00005
 385  H 4   f 6     -0.00000  -0.00013  -0.00000  -0.00000  -0.00000   0.00010
 386  H 4   f 7      0.00000   0.00024   0.00000   0.00000   0.00000  -0.00012
 387  H 4   f 1     -0.00002  -0.00010   0.00001   0.00002   0.00002  -0.00000
 388  H 4   f 2      0.00001   0.00013  -0.00001  -0.00002   0.00000  -0.00008
 389  H 4   f 3      0.00000   0.00003  -0.00000  -0.00000  -0.00001  -0.00001
 390  H 4   f 4     -0.00001   0.00048   0.00001  -0.00000   0.00004  -0.00007
 391  H 4   f 5     -0.00000  -0.00066  -0.00001  -0.00002   0.00000   0.00012
 392  H 4   f 6      0.00001  -0.00067  -0.00001   0.00001  -0.00004   0.00013
 393  H 4   f 7     -0.00001   0.00113   0.00002   0.00002   0.00004  -0.00024
 394  H 4   g 1      0.00000   0.00001  -0.00000  -0.00000  -0.00000  -0.00003
 395  H 4   g 2     -0.00000  -0.00002   0.00000   0.00000  -0.00000   0.00001
 396  H 4   g 3     -0.00000  -0.00000  -0.00000   0.00000   0.00000  -0.00000
 397  H 4   g 4      0.00000   0.00001  -0.00000  -0.00000  -0.00000  -0.00000
 398  H 4   g 5     -0.00000  -0.00004  -0.00000  -0.00000   0.00000   0.00001
 399  H 4   g 6      0.00000  -0.00009  -0.00000  -0.00000  -0.00000   0.00007
 400  H 4   g 7      0.00000   0.00007   0.00000   0.00000   0.00000  -0.00003
 401  H 4   g 8     -0.00000   0.00008   0.00000  -0.00000   0.00000  -0.00006
 402  H 4   g 9      0.00000  -0.00013  -0.00000  -0.00000  -0.00000   0.00007
 403  O 3   s       -0.00000   0.00002  -0.00000  -0.97847   0.00000  -0.00501
 404  O 3   s       -0.00000   0.00001  -0.00000  -0.03094  -0.00006   0.07468
 405  O 3   s       -0.00000   0.00002  -0.00000  -0.08513  -0.00001   0.00192
 406  O 3   s        0.00000  -0.00004   0.00002   0.01563  -0.00023   0.08598
 407  O 3   s        0.00005  -0.00036  -0.00011   0.01670   0.00127   0.11577
 408  O 3   s        0.00004  -0.00093  -0.00023   0.00310   0.00278   0.04201
 409  O 3   px      -0.00000  -0.00000  -0.00000   0.00001  -0.00000  -0.00034
 410  O 3   py      -0.00000  -0.00000   0.00000   0.00104   0.00000  -0.00580
 411  O 3   pz       0.00000   0.00000  -0.00000  -0.00068  -0.00000   0.00353
 412  O 3   px       0.00000  -0.00000   0.00000   0.00004  -0.00001  -0.00058
 413  O 3   py       0.00000  -0.00000  -0.00000   0.00057   0.00002  -0.00950
 414  O 3   pz      -0.00000  -0.00001   0.00000  -0.00035  -0.00003   0.00572
 415  O 3   px      -0.00002   0.00005  -0.00000  -0.00064   0.00003  -0.00058
 416  O 3   py      -0.00002   0.00010   0.00001  -0.00821  -0.00013  -0.01567
 417  O 3   pz      -0.00000   0.00003  -0.00001   0.00480   0.00013   0.01007
 418  O 3   px      -0.00004   0.00007  -0.00002  -0.00068  -0.00015   0.00017
 419  O 3   py      -0.00004   0.00022   0.00003  -0.00171  -0.00073  -0.00995
 420  O 3   pz      -0.00001   0.00008  -0.00004   0.00018   0.00022   0.00710
 421  O 3   px      -0.00002   0.00011   0.00000  -0.00014  -0.00023  -0.00008
 422  O 3   py      -0.00001   0.00021   0.00002  -0.00024  -0.00039  -0.00075
 423  O 3   pz      -0.00000   0.00004  -0.00001  -0.00004   0.00010   0.00068
 424  O 3   d 1     -0.00000   0.00000   0.00000  -0.00017   0.00000   0.00005
 425  O 3   d 2      0.00000  -0.00000  -0.00000   0.00001   0.00000  -0.00003
 426  O 3   d 3     -0.00000  -0.00000  -0.00000  -0.00001  -0.00000  -0.00001
 427  O 3   d 4      0.00000   0.00000  -0.00000  -0.00023   0.00000   0.00005
 428  O 3   d 5     -0.00000   0.00000  -0.00000   0.00005   0.00000  -0.00004
 429  O 3   d 1      0.00000  -0.00000   0.00000   0.00029  -0.00000   0.00042
 430  O 3   d 2     -0.00000   0.00000   0.00000  -0.00004  -0.00001  -0.00010
 431  O 3   d 3      0.00000   0.00000   0.00000   0.00002   0.00000  -0.00001
 432  O 3   d 4      0.00000  -0.00000   0.00000   0.00039  -0.00001   0.00051
 433  O 3   d 5      0.00000  -0.00000   0.00000  -0.00010  -0.00000  -0.00020
 434  O 3   d 1      0.00001  -0.00003  -0.00001   0.00210   0.00007   0.00171
 435  O 3   d 2      0.00000  -0.00003  -0.00001   0.00026   0.00004  -0.00055
 436  O 3   d 3     -0.00000   0.00003   0.00000  -0.00002  -0.00001   0.00012
 437  O 3   d 4     -0.00000  -0.00000  -0.00001   0.00256   0.00011   0.00233
 438  O 3   d 5     -0.00001   0.00003  -0.00000  -0.00043   0.00001  -0.00083
 439  O 3   d 1      0.00002  -0.00010  -0.00003  -0.00010   0.00035   0.00088
 440  O 3   d 2      0.00000  -0.00006  -0.00003   0.00018   0.00018  -0.00036
 441  O 3   d 3     -0.00000   0.00010   0.00001  -0.00023  -0.00013   0.00002
 442  O 3   d 4     -0.00001  -0.00004  -0.00003  -0.00046   0.00019   0.00109
 443  O 3   d 5     -0.00001   0.00001  -0.00001   0.00006  -0.00005  -0.00035
 444  O 3   f 1     -0.00000   0.00000   0.00000   0.00002  -0.00000  -0.00001
 445  O 3   f 2     -0.00000   0.00000   0.00000   0.00006  -0.00000  -0.00001
 446  O 3   f 3     -0.00000   0.00000   0.00000  -0.00004  -0.00000   0.00001
 447  O 3   f 4     -0.00000   0.00000  -0.00000  -0.00005   0.00000   0.00001
 448  O 3   f 5      0.00000  -0.00000   0.00000  -0.00013  -0.00000   0.00001
 449  O 3   f 6     -0.00000   0.00000   0.00000  -0.00006  -0.00000   0.00001
 450  O 3   f 7     -0.00000  -0.00000   0.00000  -0.00011  -0.00000   0.00002
 451  O 3   f 1      0.00000  -0.00000  -0.00000  -0.00019   0.00000  -0.00005
 452  O 3   f 2      0.00000  -0.00000  -0.00000  -0.00049  -0.00000  -0.00026
 453  O 3   f 3      0.00000  -0.00001  -0.00000   0.00026   0.00000   0.00011
 454  O 3   f 4      0.00000  -0.00000   0.00000   0.00040   0.00000   0.00017
 455  O 3   f 5      0.00000   0.00000  -0.00000   0.00102   0.00002   0.00059
 456  O 3   f 6      0.00000  -0.00000  -0.00000   0.00050   0.00001   0.00021
 457  O 3   f 7      0.00000  -0.00000  -0.00000   0.00086   0.00001   0.00047
 458  O 3   f 1      0.00000  -0.00002  -0.00000  -0.00002   0.00001  -0.00003
 459  O 3   f 2      0.00000  -0.00002  -0.00001   0.00010   0.00003  -0.00024
 460  O 3   f 3      0.00000  -0.00002  -0.00001  -0.00001   0.00009   0.00014
 461  O 3   f 4      0.00000   0.00003   0.00000  -0.00007   0.00000   0.00013
 462  O 3   f 5     -0.00000   0.00000  -0.00001  -0.00037   0.00007   0.00065
 463  O 3   f 6     -0.00000  -0.00003  -0.00001  -0.00011   0.00007   0.00023
 464  O 3   f 7      0.00000  -0.00003  -0.00001  -0.00019   0.00009   0.00055
 465  O 3   g 1     -0.00000   0.00000  -0.00000  -0.00007   0.00000  -0.00003
 466  O 3   g 2     -0.00000   0.00000   0.00000  -0.00002  -0.00000  -0.00001
 467  O 3   g 3     -0.00000   0.00000   0.00000  -0.00009  -0.00000  -0.00004
 468  O 3   g 4     -0.00000  -0.00000   0.00000  -0.00005  -0.00000  -0.00002
 469  O 3   g 5      0.00000  -0.00000  -0.00000   0.00002  -0.00000   0.00001
 470  O 3   g 6     -0.00000  -0.00000   0.00000   0.00006   0.00000   0.00002
 471  O 3   g 7      0.00000   0.00000   0.00000   0.00009  -0.00000   0.00003
 472  O 3   g 8     -0.00000   0.00000   0.00000  -0.00001  -0.00000  -0.00000
 473  O 3   g 9     -0.00000   0.00000   0.00000  -0.00005  -0.00000  -0.00002
 474  O 3   g 1     -0.00000   0.00000   0.00000  -0.00006  -0.00001  -0.00016
 475  O 3   g 2      0.00000   0.00000   0.00000   0.00001   0.00000  -0.00004
 476  O 3   g 3      0.00000  -0.00001  -0.00000  -0.00004   0.00001  -0.00020
 477  O 3   g 4     -0.00000  -0.00000  -0.00000  -0.00006   0.00001  -0.00008
 478  O 3   g 5      0.00000   0.00000   0.00000   0.00002  -0.00000   0.00004
 479  O 3   g 6      0.00000   0.00000  -0.00000  -0.00002   0.00000   0.00011
 480  O 3   g 7     -0.00000  -0.00001  -0.00000   0.00006   0.00002   0.00015
 481  O 3   g 8     -0.00000  -0.00001  -0.00000  -0.00004   0.00001  -0.00001
 482  O 3   g 9      0.00000  -0.00001  -0.00000  -0.00008   0.00000  -0.00007
 483  O 3   h 1      0.00000   0.00000   0.00000   0.00006  -0.00000   0.00003
 484  O 3   h 2      0.00000   0.00000   0.00000   0.00001   0.00000   0.00000
 485  O 3   h 3      0.00000   0.00000  -0.00000  -0.00002   0.00000  -0.00002
 486  O 3   h 4      0.00000  -0.00000  -0.00000   0.00001   0.00000  -0.00001
 487  O 3   h 5     -0.00000  -0.00000  -0.00000  -0.00004   0.00000  -0.00002
 488  O 3   h 6      0.00000  -0.00000   0.00000  -0.00005  -0.00000  -0.00002
 489  O 3   h 7      0.00000   0.00000   0.00000   0.00001  -0.00000   0.00001
 490  O 3   h 8     -0.00000  -0.00000  -0.00000   0.00003   0.00000   0.00002
 491  O 3   h 9     -0.00000  -0.00000  -0.00000  -0.00001   0.00000  -0.00001
 492  O 3   h10      0.00000   0.00000  -0.00000   0.00003   0.00000   0.00001
 493  O 3   h11     -0.00000   0.00000   0.00000  -0.00002  -0.00000  -0.00002
 494  H 5   s        0.00000   0.00000  -0.00000   0.00034  -0.00000   0.00697
 495  H 5   s        0.00001  -0.00005  -0.00000   0.00061   0.00002   0.01547
 496  H 5   s       -0.00008   0.00043   0.00009  -0.01210  -0.00119   0.01797
 497  H 5   s       -0.00007   0.00092   0.00012  -0.00254  -0.00182   0.00607
 498  H 5   s       -0.00001  -0.00003  -0.00001  -0.00016   0.00013   0.00021
 499  H 5   px      -0.00000   0.00000  -0.00000   0.00013  -0.00000   0.00030
 500  H 5   py       0.00000   0.00000   0.00000   0.00022  -0.00000   0.00044
 501  H 5   pz      -0.00000   0.00000  -0.00000   0.00003   0.00000   0.00011
 502  H 5   px       0.00000  -0.00001  -0.00000  -0.00042   0.00001   0.00092
 503  H 5   py       0.00000  -0.00002  -0.00000  -0.00064   0.00000   0.00133
 504  H 5   pz       0.00000  -0.00000   0.00000  -0.00013  -0.00000   0.00035
 505  H 5   px      -0.00002   0.00015   0.00002  -0.00462  -0.00025   0.00117
 506  H 5   py      -0.00003   0.00016   0.00003  -0.00782  -0.00036   0.00162
 507  H 5   pz      -0.00001   0.00004   0.00001  -0.00094  -0.00006   0.00043
 508  H 5   px      -0.00002   0.00023   0.00003  -0.00148  -0.00035   0.00051
 509  H 5   py      -0.00003   0.00034   0.00004  -0.00247  -0.00067   0.00036
 510  H 5   pz      -0.00001   0.00006   0.00000  -0.00032  -0.00010   0.00013
 511  H 5   d 1      0.00000  -0.00000  -0.00000   0.00004   0.00000   0.00018
 512  H 5   d 2     -0.00000  -0.00000  -0.00000  -0.00000   0.00000   0.00006
 513  H 5   d 3     -0.00000   0.00000   0.00000  -0.00003  -0.00000  -0.00010
 514  H 5   d 4      0.00000   0.00000   0.00000  -0.00001  -0.00000   0.00005
 515  H 5   d 5     -0.00000  -0.00000  -0.00000  -0.00003   0.00000  -0.00007
 516  H 5   d 1     -0.00000   0.00003   0.00000  -0.00210  -0.00004   0.00022
 517  H 5   d 2     -0.00000   0.00001   0.00000  -0.00042  -0.00001   0.00005
 518  H 5   d 3      0.00000  -0.00001  -0.00000   0.00135   0.00002  -0.00014
 519  H 5   d 4     -0.00000   0.00000   0.00000  -0.00026  -0.00001   0.00005
 520  H 5   d 5      0.00000   0.00000   0.00000   0.00116   0.00001  -0.00013
 521  H 5   d 1     -0.00001   0.00010   0.00001  -0.00244  -0.00011   0.00017
 522  H 5   d 2     -0.00001   0.00003   0.00000  -0.00056  -0.00004  -0.00009
 523  H 5   d 3      0.00000  -0.00006  -0.00001   0.00157   0.00007  -0.00010
 524  H 5   d 4     -0.00000   0.00003   0.00000  -0.00030  -0.00002   0.00003
 525  H 5   d 5      0.00000  -0.00002  -0.00000   0.00129   0.00006  -0.00005
 526  H 5   f 1     -0.00000   0.00000   0.00000  -0.00001  -0.00000   0.00001
 527  H 5   f 2     -0.00000   0.00000   0.00000  -0.00005  -0.00000   0.00002
 528  H 5   f 3      0.00000   0.00000   0.00000   0.00016   0.00000  -0.00003
 529  H 5   f 4      0.00000   0.00000  -0.00000   0.00005   0.00000  -0.00002
 530  H 5   f 5      0.00000  -0.00000  -0.00000   0.00010   0.00000  -0.00002
 531  H 5   f 6     -0.00000   0.00000   0.00000   0.00003  -0.00000  -0.00001
 532  H 5   f 7      0.00000  -0.00000  -0.00000   0.00025   0.00000  -0.00006
 533  H 5   f 1     -0.00000   0.00001   0.00000  -0.00005  -0.00000  -0.00002
 534  H 5   f 2     -0.00000   0.00001   0.00000  -0.00029  -0.00000  -0.00001
 535  H 5   f 3      0.00000  -0.00001  -0.00000   0.00067   0.00001  -0.00008
 536  H 5   f 4      0.00000  -0.00001  -0.00000   0.00023   0.00001   0.00001
 537  H 5   f 5      0.00000  -0.00001  -0.00000   0.00042   0.00000  -0.00004
 538  H 5   f 6      0.00000  -0.00000  -0.00000   0.00011   0.00001   0.00001
 539  H 5   f 7      0.00000  -0.00002  -0.00000   0.00110   0.00001  -0.00009
 540  H 5   g 1      0.00000  -0.00000   0.00000   0.00008   0.00000  -0.00003
 541  H 5   g 2     -0.00000   0.00000   0.00000  -0.00001  -0.00000   0.00000
 542  H 5   g 3      0.00000  -0.00000  -0.00000   0.00006   0.00000  -0.00002
 543  H 5   g 4      0.00000  -0.00000  -0.00000   0.00002  -0.00000  -0.00001
 544  H 5   g 5     -0.00000   0.00000  -0.00000  -0.00004  -0.00000   0.00002
 545  H 5   g 6      0.00000  -0.00000  -0.00000   0.00002   0.00000  -0.00001
 546  H 5   g 7     -0.00000  -0.00000  -0.00000  -0.00003  -0.00000   0.00001
 547  H 5   g 8      0.00000  -0.00000  -0.00000   0.00003   0.00000  -0.00001
 548  H 5   g 9      0.00000  -0.00000  -0.00000   0.00005   0.00000  -0.00002
 549  H 6   s       -0.00000   0.00000  -0.00000   0.00022  -0.00001   0.00617
 550  H 6   s        0.00000   0.00000   0.00000   0.00139   0.00005   0.01410
 551  H 6   s        0.00002  -0.00008   0.00007  -0.00919  -0.00072   0.01592
 552  H 6   s        0.00002   0.00013   0.00007  -0.00136  -0.00056   0.00397
 553  H 6   s        0.00002   0.00006   0.00003  -0.00010  -0.00031   0.00158
 554  H 6   px      -0.00000  -0.00000   0.00000  -0.00012  -0.00000  -0.00026
 555  H 6   py       0.00000  -0.00000  -0.00000   0.00003  -0.00000   0.00004
 556  H 6   pz       0.00000  -0.00000   0.00000  -0.00018  -0.00000  -0.00039
 557  H 6   px       0.00000   0.00001  -0.00000   0.00011   0.00001  -0.00087
 558  H 6   py       0.00000   0.00000  -0.00000   0.00002   0.00001   0.00015
 559  H 6   pz      -0.00000   0.00000  -0.00000   0.00014   0.00000  -0.00128
 560  H 6   px       0.00000   0.00002   0.00000   0.00394   0.00006  -0.00092
 561  H 6   py      -0.00000   0.00003   0.00003  -0.00139  -0.00020  -0.00023
 562  H 6   pz      -0.00001  -0.00002  -0.00003   0.00642   0.00029  -0.00111
 563  H 6   px       0.00000   0.00013  -0.00000   0.00114   0.00020   0.00014
 564  H 6   py      -0.00001   0.00013   0.00003  -0.00028  -0.00022  -0.00033
 565  H 6   pz      -0.00002  -0.00003  -0.00004   0.00183   0.00037   0.00048
 566  H 6   d 1     -0.00000   0.00001   0.00000  -0.00004  -0.00000  -0.00001
 567  H 6   d 2     -0.00000  -0.00000   0.00000  -0.00006  -0.00000  -0.00002
 568  H 6   d 3     -0.00000  -0.00000  -0.00000   0.00011   0.00000   0.00011
 569  H 6   d 4     -0.00000   0.00000   0.00000   0.00014   0.00000   0.00017
 570  H 6   d 5      0.00000   0.00000   0.00000   0.00003   0.00000   0.00005
 571  H 6   d 1      0.00000  -0.00003  -0.00001   0.00042   0.00002   0.00001
 572  H 6   d 2      0.00000  -0.00000  -0.00001   0.00068   0.00004  -0.00002
 573  H 6   d 3      0.00000   0.00001   0.00001  -0.00141  -0.00004   0.00007
 574  H 6   d 4      0.00000  -0.00002  -0.00000  -0.00191  -0.00003   0.00017
 575  H 6   d 5     -0.00000  -0.00001  -0.00000  -0.00051  -0.00000   0.00003
 576  H 6   d 1      0.00000   0.00002  -0.00001   0.00045   0.00008   0.00016
 577  H 6   d 2      0.00000  -0.00006  -0.00003   0.00069   0.00015   0.00023
 578  H 6   d 3      0.00001   0.00002   0.00001  -0.00164  -0.00011  -0.00012
 579  H 6   d 4     -0.00000  -0.00002  -0.00001  -0.00222  -0.00005  -0.00006
 580  H 6   d 5     -0.00000  -0.00003  -0.00001  -0.00065   0.00005   0.00005
 581  H 6   f 1      0.00000  -0.00000   0.00000  -0.00003  -0.00000   0.00000
 582  H 6   f 2      0.00000  -0.00000   0.00000  -0.00010  -0.00000   0.00000
 583  H 6   f 3      0.00000   0.00000   0.00000  -0.00008  -0.00000   0.00001
 584  H 6   f 4     -0.00000   0.00000  -0.00000   0.00007   0.00000  -0.00000
 585  H 6   f 5     -0.00000   0.00000  -0.00000   0.00024   0.00000  -0.00003
 586  H 6   f 6      0.00000  -0.00000   0.00000   0.00011   0.00000  -0.00002
 587  H 6   f 7     -0.00000   0.00000   0.00000   0.00003   0.00000  -0.00000
 588  H 6   f 1     -0.00000   0.00000   0.00000  -0.00014  -0.00001  -0.00001
 589  H 6   f 2     -0.00000   0.00001   0.00000  -0.00042  -0.00003  -0.00001
 590  H 6   f 3     -0.00000   0.00002   0.00001  -0.00039  -0.00004  -0.00001
 591  H 6   f 4     -0.00000  -0.00001  -0.00000   0.00029   0.00002   0.00000
 592  H 6   f 5     -0.00000   0.00000   0.00000   0.00116   0.00002  -0.00001
 593  H 6   f 6      0.00000   0.00001   0.00000   0.00055  -0.00001  -0.00001
 594  H 6   f 7      0.00000  -0.00000   0.00000   0.00012  -0.00001  -0.00000
 595  H 6   g 1      0.00000  -0.00000  -0.00000   0.00001   0.00000  -0.00000
 596  H 6   g 2      0.00000  -0.00000  -0.00000   0.00005   0.00000  -0.00000
 597  H 6   g 3      0.00000  -0.00000  -0.00000   0.00009   0.00000  -0.00000
 598  H 6   g 4     -0.00000  -0.00000  -0.00000   0.00004   0.00000  -0.00000
 599  H 6   g 5      0.00000   0.00000   0.00000   0.00003  -0.00000  -0.00000
 600  H 6   g 6      0.00000   0.00000   0.00000  -0.00014  -0.00000   0.00001
 601  H 6   g 7     -0.00000  -0.00000  -0.00000  -0.00010   0.00000   0.00002
 602  H 6   g 8      0.00000  -0.00000  -0.00000  -0.00003   0.00000   0.00001
 603  H 6   g 9     -0.00000  -0.00000  -0.00000  -0.00001   0.00000   0.00000
 604  O 4   s        0.97832  -0.00001   0.00003   0.00000   0.01847   0.00020
 605  O 4   s        0.03069  -0.00000   0.00001   0.00000  -0.28299  -0.00317
 606  O 4   s        0.08474  -0.00001   0.00002  -0.00000  -0.00782  -0.00010
 607  O 4   s       -0.01488   0.00012   0.00007   0.00002  -0.32450  -0.00348
 608  O 4   s       -0.01115  -0.00059  -0.00065  -0.00003  -0.44248  -0.00588
 609  O 4   s       -0.00287  -0.00047  -0.00060  -0.00036  -0.17480  -0.00328
 610  O 4   px       0.00113  -0.00000  -0.00000  -0.00000  -0.02288  -0.00038
 611  O 4   py       0.00029  -0.00000  -0.00000  -0.00000  -0.00458  -0.00007
 612  O 4   pz      -0.00036  -0.00000   0.00001  -0.00000   0.00846   0.00018
 613  O 4   px       0.00062   0.00002   0.00002   0.00000  -0.03710  -0.00059
 614  O 4   py       0.00015   0.00001   0.00002   0.00001  -0.00735  -0.00011
 615  O 4   pz      -0.00037   0.00001  -0.00006   0.00000   0.01359   0.00029
 616  O 4   px      -0.00797  -0.00013  -0.00016  -0.00000  -0.06322  -0.00112
 617  O 4   py      -0.00115   0.00002  -0.00003  -0.00004  -0.01366  -0.00024
 618  O 4   pz       0.00388   0.00004   0.00028  -0.00002   0.02407   0.00053
 619  O 4   px      -0.00071  -0.00028  -0.00030  -0.00009  -0.04589  -0.00126
 620  O 4   py       0.00156  -0.00008  -0.00015  -0.00021  -0.00819  -0.00050
 621  O 4   pz      -0.00001  -0.00005  -0.00037  -0.00005   0.01333   0.00049
 622  O 4   px      -0.00037   0.00004  -0.00009  -0.00009  -0.00676  -0.00101
 623  O 4   py       0.00032   0.00002   0.00013  -0.00010  -0.00103  -0.00008
 624  O 4   pz      -0.00012  -0.00009  -0.00002  -0.00002   0.00052   0.00046
 625  O 4   d 1      0.00003  -0.00000  -0.00000   0.00000  -0.00003  -0.00000
 626  O 4   d 2      0.00015  -0.00000   0.00000   0.00000  -0.00010  -0.00000
 627  O 4   d 3     -0.00012   0.00000  -0.00000  -0.00000   0.00014   0.00000
 628  O 4   d 4     -0.00014   0.00000  -0.00000   0.00000   0.00020   0.00001
 629  O 4   d 5     -0.00007   0.00000   0.00000   0.00000  -0.00006  -0.00000
 630  O 4   d 1     -0.00004   0.00000   0.00000   0.00000  -0.00030   0.00000
 631  O 4   d 2     -0.00024   0.00000  -0.00000   0.00000  -0.00127  -0.00002
 632  O 4   d 3      0.00018  -0.00000  -0.00000  -0.00000   0.00117   0.00002
 633  O 4   d 4      0.00024  -0.00000   0.00001  -0.00000   0.00144  -0.00001
 634  O 4   d 5      0.00010  -0.00001  -0.00002  -0.00000   0.00015   0.00002
 635  O 4   d 1      0.00011   0.00001   0.00001  -0.00002  -0.00184  -0.00005
 636  O 4   d 2     -0.00179  -0.00006  -0.00006   0.00000  -0.00574  -0.00009
 637  O 4   d 3      0.00132   0.00004   0.00010   0.00001   0.00553   0.00010
 638  O 4   d 4      0.00159   0.00002   0.00007  -0.00001   0.00668   0.00021
 639  O 4   d 5      0.00051   0.00004   0.00007   0.00001   0.00109  -0.00005
 640  O 4   d 1      0.00081  -0.00002   0.00008  -0.00007  -0.00052  -0.00008
 641  O 4   d 2      0.00056  -0.00010   0.00007  -0.00001  -0.00275  -0.00005
 642  O 4   d 3     -0.00063   0.00011  -0.00010   0.00004   0.00234   0.00016
 643  O 4   d 4     -0.00069  -0.00001  -0.00027  -0.00001   0.00339  -0.00006
 644  O 4   d 5     -0.00020   0.00003   0.00003   0.00001   0.00029   0.00013
 645  O 4   f 1     -0.00004  -0.00000  -0.00000   0.00000   0.00003  -0.00000
 646  O 4   f 2      0.00011   0.00000   0.00001  -0.00000  -0.00002   0.00000
 647  O 4   f 3     -0.00006  -0.00000   0.00000   0.00000   0.00000  -0.00000
 648  O 4   f 4      0.00003   0.00000   0.00000  -0.00000  -0.00000  -0.00000
 649  O 4   f 5     -0.00002   0.00000  -0.00001   0.00000  -0.00002  -0.00000
 650  O 4   f 6     -0.00003  -0.00000  -0.00000  -0.00000  -0.00002   0.00000
 651  O 4   f 7     -0.00010  -0.00000  -0.00000  -0.00000   0.00001  -0.00000
 652  O 4   f 1      0.00036   0.00001   0.00001  -0.00000   0.00060   0.00002
 653  O 4   f 2     -0.00083  -0.00001  -0.00003   0.00000  -0.00165  -0.00003
 654  O 4   f 3      0.00050   0.00001  -0.00001   0.00000   0.00125   0.00002
 655  O 4   f 4     -0.00029  -0.00001  -0.00001   0.00000  -0.00074  -0.00001
 656  O 4   f 5      0.00010  -0.00000   0.00004   0.00000   0.00023   0.00000
 657  O 4   f 6      0.00023   0.00001   0.00002   0.00000   0.00071   0.00000
 658  O 4   f 7      0.00079   0.00001   0.00002   0.00000   0.00168   0.00003
 659  O 4   f 1      0.00001   0.00003   0.00009  -0.00000   0.00097   0.00002
 660  O 4   f 2      0.00032  -0.00004   0.00006  -0.00000  -0.00189  -0.00003
 661  O 4   f 3     -0.00030  -0.00000   0.00009   0.00001   0.00210   0.00005
 662  O 4   f 4      0.00012   0.00003   0.00001   0.00000  -0.00097  -0.00006
 663  O 4   f 5     -0.00013   0.00003  -0.00009   0.00001  -0.00008  -0.00002
 664  O 4   f 6     -0.00019   0.00001  -0.00006   0.00000   0.00084   0.00010
 665  O 4   f 7     -0.00031   0.00005   0.00005   0.00001   0.00234   0.00002
 666  O 4   g 1      0.00008   0.00000  -0.00000   0.00000   0.00011   0.00000
 667  O 4   g 2     -0.00007  -0.00000  -0.00000   0.00000  -0.00011  -0.00000
 668  O 4   g 3      0.00010   0.00000  -0.00000  -0.00000   0.00010   0.00000
 669  O 4   g 4      0.00004  -0.00000  -0.00000  -0.00000   0.00004   0.00000
 670  O 4   g 5      0.00001  -0.00000   0.00000  -0.00000   0.00000   0.00000
 671  O 4   g 6     -0.00002  -0.00000   0.00000   0.00000  -0.00002  -0.00000
 672  O 4   g 7     -0.00004   0.00000  -0.00000  -0.00000  -0.00005  -0.00000
 673  O 4   g 8     -0.00001  -0.00000  -0.00000   0.00000  -0.00002   0.00000
 674  O 4   g 9      0.00008   0.00000  -0.00000  -0.00000   0.00010   0.00000
 675  O 4   g 1      0.00003   0.00001   0.00002   0.00000   0.00067   0.00002
 676  O 4   g 2     -0.00005   0.00000   0.00001  -0.00000  -0.00057  -0.00002
 677  O 4   g 3      0.00001  -0.00000   0.00002   0.00000   0.00093   0.00002
 678  O 4   g 4      0.00002   0.00001   0.00001   0.00000   0.00029   0.00001
 679  O 4   g 5      0.00001   0.00000  -0.00002  -0.00000   0.00005  -0.00000
 680  O 4   g 6      0.00000   0.00000  -0.00001  -0.00000  -0.00025  -0.00000
 681  O 4   g 7     -0.00000  -0.00001  -0.00000  -0.00000  -0.00034  -0.00001
 682  O 4   g 8     -0.00004   0.00001   0.00000   0.00000   0.00002   0.00000
 683  O 4   g 9      0.00004   0.00000   0.00001   0.00000   0.00069   0.00001
 684  O 4   h 1      0.00003   0.00000  -0.00000   0.00000   0.00013   0.00000
 685  O 4   h 2     -0.00001   0.00000   0.00000   0.00000  -0.00005  -0.00000
 686  O 4   h 3      0.00003   0.00000  -0.00000  -0.00000   0.00012   0.00000
 687  O 4   h 4      0.00002   0.00000  -0.00000   0.00000   0.00004  -0.00000
 688  O 4   h 5     -0.00005   0.00000   0.00000  -0.00000  -0.00014  -0.00000
 689  O 4   h 6     -0.00001  -0.00000  -0.00000   0.00000  -0.00002  -0.00000
 690  O 4   h 7      0.00002  -0.00000  -0.00000   0.00000   0.00004   0.00000
 691  O 4   h 8     -0.00000  -0.00000   0.00000  -0.00000  -0.00002  -0.00000
 692  O 4   h 9     -0.00001  -0.00000   0.00000   0.00000  -0.00007  -0.00000
 693  O 4   h10     -0.00004   0.00000  -0.00000   0.00000  -0.00007  -0.00000
 694  O 4   h11      0.00000  -0.00000  -0.00000  -0.00000   0.00002   0.00000
 695  H 7   s       -0.00012  -0.00000  -0.00000  -0.00000  -0.02167  -0.00026
 696  H 7   s       -0.00146  -0.00001  -0.00001  -0.00001  -0.04973  -0.00067
 697  H 7   s        0.00552   0.00043   0.00037   0.00021  -0.05945  -0.00011
 698  H 7   s        0.00105   0.00001   0.00021   0.00036  -0.01483   0.00055
 699  H 7   s        0.00003   0.00002  -0.00001  -0.00001  -0.00197  -0.00000
 700  H 7   px       0.00008   0.00000   0.00000  -0.00000   0.00075   0.00000
 701  H 7   py       0.00014   0.00000   0.00000  -0.00000   0.00149   0.00002
 702  H 7   pz       0.00003   0.00000   0.00000   0.00000   0.00020   0.00001
 703  H 7   px       0.00010  -0.00001   0.00000   0.00000   0.00234   0.00005
 704  H 7   py       0.00010  -0.00001  -0.00002   0.00000   0.00486   0.00007
 705  H 7   pz      -0.00005  -0.00001  -0.00002  -0.00000   0.00067   0.00000
 706  H 7   px      -0.00300  -0.00011  -0.00021  -0.00004   0.00195  -0.00016
 707  H 7   py      -0.00469  -0.00015  -0.00013  -0.00008   0.00609  -0.00012
 708  H 7   pz      -0.00032   0.00007   0.00002  -0.00000   0.00123   0.00003
 709  H 7   px      -0.00072  -0.00005  -0.00004  -0.00007  -0.00060  -0.00008
 710  H 7   py      -0.00144   0.00000  -0.00014  -0.00014   0.00079  -0.00031
 711  H 7   pz       0.00005   0.00008   0.00012  -0.00000   0.00051  -0.00014
 712  H 7   d 1     -0.00021  -0.00000  -0.00000  -0.00000  -0.00050  -0.00001
 713  H 7   d 2     -0.00002   0.00000  -0.00000  -0.00000  -0.00014  -0.00000
 714  H 7   d 3      0.00012   0.00000  -0.00000   0.00000   0.00035   0.00001
 715  H 7   d 4     -0.00003   0.00000  -0.00000   0.00000  -0.00007   0.00000
 716  H 7   d 5      0.00008   0.00000  -0.00001   0.00000   0.00037   0.00001
 717  H 7   d 1      0.00166   0.00004   0.00005   0.00001  -0.00039   0.00002
 718  H 7   d 2      0.00024  -0.00001   0.00001   0.00000  -0.00018   0.00001
 719  H 7   d 3     -0.00103  -0.00002  -0.00002  -0.00001   0.00033  -0.00001
 720  H 7   d 4      0.00018  -0.00000   0.00002  -0.00000   0.00004  -0.00001
 721  H 7   d 5     -0.00080  -0.00001   0.00001  -0.00000   0.00037  -0.00000
 722  H 7   d 1      0.00184   0.00001   0.00006   0.00003   0.00012   0.00007
 723  H 7   d 2      0.00015  -0.00005  -0.00005  -0.00000  -0.00026   0.00001
 724  H 7   d 3     -0.00118  -0.00001  -0.00001  -0.00002   0.00005  -0.00004
 725  H 7   d 4      0.00020  -0.00004   0.00002   0.00000   0.00003   0.00005
 726  H 7   d 5     -0.00109   0.00003   0.00001  -0.00002   0.00032  -0.00003
 727  H 7   f 1     -0.00002  -0.00000  -0.00000  -0.00000  -0.00002  -0.00000
 728  H 7   f 2     -0.00004   0.00000   0.00000   0.00000   0.00001   0.00000
 729  H 7   f 3      0.00013   0.00000   0.00000   0.00000  -0.00006   0.00000
 730  H 7   f 4      0.00002  -0.00000   0.00000   0.00000  -0.00002   0.00000
 731  H 7   f 5      0.00008   0.00000   0.00000   0.00000  -0.00003   0.00000
 732  H 7   f 6      0.00002  -0.00000  -0.00000   0.00000  -0.00003   0.00000
 733  H 7   f 7      0.00020   0.00001   0.00001   0.00000  -0.00008   0.00000
 734  H 7   f 1     -0.00002  -0.00001  -0.00002  -0.00000   0.00006   0.00000
 735  H 7   f 2     -0.00018   0.00001  -0.00002  -0.00000  -0.00003  -0.00001
 736  H 7   f 3      0.00068  -0.00000  -0.00000   0.00000  -0.00006   0.00000
 737  H 7   f 4      0.00015  -0.00001   0.00001  -0.00000  -0.00000   0.00001
 738  H 7   f 5      0.00041   0.00000   0.00001   0.00000  -0.00007   0.00000
 739  H 7   f 6      0.00006  -0.00001  -0.00000  -0.00000  -0.00003   0.00001
 740  H 7   f 7      0.00108  -0.00000   0.00001   0.00000  -0.00009   0.00001
 741  H 7   g 1     -0.00015   0.00000   0.00000  -0.00000   0.00002  -0.00000
 742  H 7   g 2      0.00000  -0.00000  -0.00000   0.00000   0.00001  -0.00000
 743  H 7   g 3     -0.00011  -0.00000  -0.00000  -0.00000   0.00003  -0.00000
 744  H 7   g 4     -0.00003   0.00000  -0.00000   0.00000   0.00002  -0.00000
 745  H 7   g 5      0.00008   0.00000   0.00000   0.00000  -0.00001   0.00000
 746  H 7   g 6     -0.00001   0.00000  -0.00000  -0.00000   0.00000  -0.00000
 747  H 7   g 7      0.00006  -0.00000  -0.00000   0.00000  -0.00001   0.00000
 748  H 7   g 8     -0.00005   0.00000  -0.00000  -0.00000   0.00000  -0.00000
 749  H 7   g 9     -0.00010  -0.00000  -0.00000  -0.00000   0.00002   0.00000
 750  H 8   s       -0.00023  -0.00000   0.00000   0.00000  -0.02415  -0.00031
 751  H 8   s       -0.00140  -0.00004  -0.00009   0.00001  -0.05448  -0.00071
 752  H 8   s        0.00989   0.00038   0.00033  -0.00007  -0.06146  -0.00040
 753  H 8   s        0.00256   0.00026   0.00032  -0.00005  -0.01310   0.00059
 754  H 8   s        0.00012  -0.00003   0.00000   0.00000  -0.00227   0.00007
 755  H 8   px       0.00015   0.00000   0.00001   0.00000   0.00116   0.00001
 756  H 8   py      -0.00013   0.00000  -0.00001  -0.00000  -0.00109  -0.00002
 757  H 8   pz      -0.00011   0.00000   0.00001  -0.00000  -0.00106  -0.00001
 758  H 8   px      -0.00013   0.00001  -0.00002  -0.00000   0.00346   0.00004
 759  H 8   py       0.00019  -0.00001   0.00002   0.00000  -0.00340  -0.00002
 760  H 8   pz       0.00006  -0.00001  -0.00006   0.00000  -0.00318  -0.00004
 761  H 8   px      -0.00537  -0.00013  -0.00016   0.00004   0.00301  -0.00008
 762  H 8   py       0.00385   0.00011   0.00005  -0.00002  -0.00430   0.00008
 763  H 8   pz       0.00467   0.00016   0.00027  -0.00002  -0.00379   0.00010
 764  H 8   px      -0.00170  -0.00009  -0.00006   0.00006  -0.00074  -0.00002
 765  H 8   py       0.00128   0.00003   0.00013   0.00000  -0.00098   0.00022
 766  H 8   pz       0.00171   0.00017   0.00017  -0.00002   0.00049   0.00009
 767  H 8   d 1      0.00012   0.00001   0.00001  -0.00000   0.00046   0.00001
[...]
 195  H 1   py       0.05091
 196  H 1   pz      -0.01029
 197  H 1   px      -0.03462
 198  H 1   py       0.17195
 199  H 1   pz      -0.01378
 200  H 1   d 1     -0.00017
 201  H 1   d 2     -0.00017
 202  H 1   d 3     -0.00057
 203  H 1   d 4      0.00016
 204  H 1   d 5     -0.00025
 205  H 1   d 1      0.00222
 206  H 1   d 2      0.00200
 207  H 1   d 3      0.00399
 208  H 1   d 4     -0.00107
 209  H 1   d 5      0.00351
 210  H 1   d 1      0.01010
 211  H 1   d 2      0.00602
 212  H 1   d 3      0.00595
 213  H 1   d 4      0.00036
 214  H 1   d 5      0.02361
 215  H 1   f 1      0.00003
 216  H 1   f 2      0.00018
 217  H 1   f 3     -0.00010
 218  H 1   f 4     -0.00020
 219  H 1   f 5     -0.00008
 220  H 1   f 6      0.00011
 221  H 1   f 7      0.00020
 222  H 1   f 1     -0.00459
 223  H 1   f 2     -0.00004
 224  H 1   f 3     -0.00254
 225  H 1   f 4      0.00222
 226  H 1   f 5      0.00103
 227  H 1   f 6      0.00111
 228  H 1   f 7      0.00205
 229  H 1   g 1     -0.00026
 230  H 1   g 2     -0.00012
 231  H 1   g 3     -0.00006
 232  H 1   g 4     -0.00010
 233  H 1   g 5     -0.00014
 234  H 1   g 6      0.00002
 235  H 1   g 7     -0.00013
 236  H 1   g 8      0.00005
 237  H 1   g 9     -0.00029
 238  H 2   s       -0.00156
 239  H 2   s       -0.00720
 240  H 2   s        0.14564
 241  H 2   s        0.13870
 242  H 2   s        0.12540
 243  H 2   px       0.00047
 244  H 2   py       0.00014
 245  H 2   pz       0.00016
 246  H 2   px      -0.00104
 247  H 2   py      -0.00134
 248  H 2   pz       0.00030
 249  H 2   px      -0.01505
 250  H 2   py       0.00867
 251  H 2   pz      -0.04368
 252  H 2   px      -0.03880
 253  H 2   py      -0.02211
 254  H 2   pz      -0.06204
 255  H 2   d 1      0.00005
 256  H 2   d 2      0.00030
 257  H 2   d 3     -0.00018
 258  H 2   d 4      0.00019
 259  H 2   d 5     -0.00016
 260  H 2   d 1     -0.00064
 261  H 2   d 2     -0.00211
 262  H 2   d 3      0.00405
 263  H 2   d 4      0.00206
 264  H 2   d 5      0.00103
 265  H 2   d 1      0.00245
 266  H 2   d 2      0.00445
 267  H 2   d 3      0.00598
 268  H 2   d 4      0.00434
 269  H 2   d 5     -0.00020
 270  H 2   f 1      0.00010
 271  H 2   f 2      0.00030
 272  H 2   f 3      0.00029
 273  H 2   f 4     -0.00027
 274  H 2   f 5     -0.00062
 275  H 2   f 6     -0.00007
 276  H 2   f 7      0.00006
 277  H 2   f 1     -0.00039
 278  H 2   f 2     -0.00099
 279  H 2   f 3     -0.00058
 280  H 2   f 4     -0.00085
 281  H 2   f 5      0.00124
 282  H 2   f 6      0.00019
 283  H 2   f 7     -0.00028
 284  H 2   g 1     -0.00000
 285  H 2   g 2     -0.00000
 286  H 2   g 3     -0.00000
 287  H 2   g 4     -0.00004
 288  H 2   g 5      0.00013
 289  H 2   g 6      0.00005
 290  H 2   g 7     -0.00005
 291  H 2   g 8     -0.00002
 292  H 2   g 9     -0.00000
 293  H 3   s       -0.00176
 294  H 3   s       -0.00581
 295  H 3   s       -0.04445
 296  H 3   s       -0.05453
 297  H 3   s       -0.13650
 298  H 3   px       0.00011
 299  H 3   py      -0.00024
 300  H 3   pz      -0.00024
 301  H 3   px      -0.00035
 302  H 3   py       0.00013
 303  H 3   pz      -0.00004
 304  H 3   px       0.00599
 305  H 3   py       0.00418
 306  H 3   pz       0.00344
 307  H 3   px       0.02668
 308  H 3   py       0.01188
 309  H 3   pz      -0.00036
 310  H 3   d 1     -0.00000
 311  H 3   d 2     -0.00005
 312  H 3   d 3      0.00001
 313  H 3   d 4     -0.00006
 314  H 3   d 5     -0.00006
 315  H 3   d 1     -0.00010
 316  H 3   d 2     -0.00015
 317  H 3   d 3     -0.00008
 318  H 3   d 4      0.00012
 319  H 3   d 5      0.00053
 320  H 3   d 1     -0.00523
 321  H 3   d 2     -0.00145
 322  H 3   d 3      0.00157
 323  H 3   d 4     -0.00947
 324  H 3   d 5      0.00343
 325  H 3   f 1      0.00004
 326  H 3   f 2     -0.00002
 327  H 3   f 3      0.00006
 328  H 3   f 4     -0.00004
 329  H 3   f 5     -0.00009
 330  H 3   f 6      0.00002
 331  H 3   f 7      0.00002
 332  H 3   f 1     -0.00077
 333  H 3   f 2      0.00147
 334  H 3   f 3     -0.00067
 335  H 3   f 4     -0.00010
 336  H 3   f 5      0.00154
 337  H 3   f 6     -0.00080
 338  H 3   f 7     -0.00058
 339  H 3   g 1      0.00002
 340  H 3   g 2      0.00006
 341  H 3   g 3     -0.00016
 342  H 3   g 4      0.00006
 343  H 3   g 5      0.00001
 344  H 3   g 6     -0.00006
 345  H 3   g 7      0.00003
 346  H 3   g 8      0.00009
 347  H 3   g 9     -0.00003
 348  H 4   s       -0.00103
 349  H 4   s       -0.00184
 350  H 4   s       -0.09447
 351  H 4   s       -0.12990
 352  H 4   s       -0.01256
 353  H 4   px      -0.00031
 354  H 4   py      -0.00008
 355  H 4   pz       0.00024
 356  H 4   px       0.00066
 357  H 4   py       0.00025
 358  H 4   pz      -0.00031
 359  H 4   px       0.02918
 360  H 4   py       0.00836
 361  H 4   pz      -0.00553
 362  H 4   px       0.05170
 363  H 4   py       0.02951
 364  H 4   pz      -0.01017
 365  H 4   d 1      0.00030
 366  H 4   d 2     -0.00027
 367  H 4   d 3     -0.00005
 368  H 4   d 4     -0.00015
 369  H 4   d 5      0.00007
 370  H 4   d 1     -0.00226
 371  H 4   d 2      0.00149
 372  H 4   d 3      0.00153
 373  H 4   d 4      0.00239
 374  H 4   d 5     -0.00323
 375  H 4   d 1     -0.00944
 376  H 4   d 2      0.00160
 377  H 4   d 3      0.00277
 378  H 4   d 4      0.00313
 379  H 4   d 5     -0.00803
 380  H 4   f 1      0.00002
 381  H 4   f 2      0.00004
 382  H 4   f 3      0.00004
 383  H 4   f 4      0.00008
 384  H 4   f 5     -0.00015
 385  H 4   f 6     -0.00021
 386  H 4   f 7      0.00026
 387  H 4   f 1      0.00255
 388  H 4   f 2     -0.00170
 389  H 4   f 3     -0.00059
 390  H 4   f 4      0.00069
 391  H 4   f 5     -0.00012
 392  H 4   f 6     -0.00075
 393  H 4   f 7      0.00109
 394  H 4   g 1     -0.00022
 395  H 4   g 2      0.00015
 396  H 4   g 3      0.00004
 397  H 4   g 4     -0.00005
 398  H 4   g 5      0.00001
 399  H 4   g 6     -0.00004
 400  H 4   g 7      0.00001
 401  H 4   g 8      0.00008
 402  H 4   g 9     -0.00009
 403  O 3   s        0.00024
 404  O 3   s       -0.01022
 405  O 3   s       -0.00077
 406  O 3   s       -0.00558
 407  O 3   s       -0.01282
 408  O 3   s       -0.09498
 409  O 3   px       0.00521
 410  O 3   py       0.00684
 411  O 3   pz       0.00039
 412  O 3   px       0.00808
 413  O 3   py       0.00984
 414  O 3   pz      -0.00014
 415  O 3   px       0.01849
 416  O 3   py       0.02092
 417  O 3   pz       0.00819
 418  O 3   px       0.01982
 419  O 3   py       0.04545
 420  O 3   pz      -0.02452
 421  O 3   px       0.02868
 422  O 3   py       0.02848
 423  O 3   pz       0.05447
 424  O 3   d 1     -0.00009
 425  O 3   d 2      0.00010
 426  O 3   d 3     -0.00008
 427  O 3   d 4     -0.00011
 428  O 3   d 5      0.00005
 429  O 3   d 1      0.00056
 430  O 3   d 2     -0.00030
 431  O 3   d 3      0.00036
 432  O 3   d 4      0.00067
 433  O 3   d 5     -0.00027
 434  O 3   d 1     -0.00612
 435  O 3   d 2      0.00093
 436  O 3   d 3      0.00263
 437  O 3   d 4      0.00072
 438  O 3   d 5      0.00427
 439  O 3   d 1     -0.00981
 440  O 3   d 2      0.00046
 441  O 3   d 3      0.00585
 442  O 3   d 4     -0.00215
 443  O 3   d 5      0.00944
 444  O 3   f 1     -0.00001
 445  O 3   f 2      0.00010
 446  O 3   f 3      0.00009
 447  O 3   f 4     -0.00000
 448  O 3   f 5      0.00003
 449  O 3   f 6     -0.00001
 450  O 3   f 7      0.00005
 451  O 3   f 1      0.00001
 452  O 3   f 2     -0.00052
 453  O 3   f 3     -0.00083
 454  O 3   f 4      0.00000
 455  O 3   f 5     -0.00001
 456  O 3   f 6      0.00025
 457  O 3   f 7     -0.00069
 458  O 3   f 1     -0.00156
 459  O 3   f 2     -0.00060
 460  O 3   f 3     -0.00382
 461  O 3   f 4     -0.00068
 462  O 3   f 5     -0.00469
 463  O 3   f 6     -0.00099
 464  O 3   f 7     -0.00547
 465  O 3   g 1      0.00002
 466  O 3   g 2     -0.00002
 467  O 3   g 3     -0.00001
 468  O 3   g 4      0.00003
 469  O 3   g 5     -0.00000
 470  O 3   g 6      0.00009
 471  O 3   g 7      0.00006
 472  O 3   g 8      0.00006
 473  O 3   g 9      0.00004
 474  O 3   g 1      0.00078
 475  O 3   g 2      0.00007
 476  O 3   g 3      0.00070
 477  O 3   g 4     -0.00020
 478  O 3   g 5     -0.00079
 479  O 3   g 6     -0.00059
 480  O 3   g 7     -0.00070
 481  O 3   g 8     -0.00038
 482  O 3   g 9      0.00024
 483  O 3   h 1     -0.00012
 484  O 3   h 2      0.00000
 485  O 3   h 3     -0.00001
 486  O 3   h 4      0.00001
 487  O 3   h 5      0.00013
 488  O 3   h 6     -0.00002
 489  O 3   h 7      0.00002
 490  O 3   h 8     -0.00003
 491  O 3   h 9      0.00012
 492  O 3   h10      0.00002
 493  O 3   h11      0.00008
 494  H 5   s        0.00043
 495  H 5   s       -0.00023
 496  H 5   s        0.07513
 497  H 5   s       -0.04988
 498  H 5   s        0.34786
 499  H 5   px      -0.00057
 500  H 5   py      -0.00083
 501  H 5   pz      -0.00004
 502  H 5   px       0.00164
 503  H 5   py       0.00233
 504  H 5   pz      -0.00042
 505  H 5   px       0.00540
 506  H 5   py       0.00357
 507  H 5   pz       0.00982
 508  H 5   px       0.00473
 509  H 5   py      -0.00897
 510  H 5   pz      -0.00408
 511  H 5   d 1     -0.00006
 512  H 5   d 2     -0.00018
 513  H 5   d 3      0.00000
 514  H 5   d 4     -0.00010
 515  H 5   d 5      0.00003
 516  H 5   d 1      0.00236
 517  H 5   d 2      0.00234
 518  H 5   d 3     -0.00098
 519  H 5   d 4      0.00150
 520  H 5   d 5     -0.00064
 521  H 5   d 1     -0.00252
 522  H 5   d 2      0.00173
 523  H 5   d 3      0.00254
 524  H 5   d 4      0.00139
 525  H 5   d 5      0.00528
 526  H 5   f 1      0.00004
 527  H 5   f 2      0.00026
 528  H 5   f 3     -0.00007
 529  H 5   f 4     -0.00019
 530  H 5   f 5     -0.00000
 531  H 5   f 6     -0.00004
 532  H 5   f 7     -0.00026
 533  H 5   f 1      0.00066
 534  H 5   f 2      0.00054
 535  H 5   f 3      0.00057
 536  H 5   f 4     -0.00057
 537  H 5   f 5     -0.00002
 538  H 5   f 6     -0.00052
 539  H 5   f 7      0.00089
 540  H 5   g 1      0.00006
 541  H 5   g 2      0.00002
 542  H 5   g 3      0.00005
 543  H 5   g 4     -0.00008
 544  H 5   g 5     -0.00004
 545  H 5   g 6     -0.00006
 546  H 5   g 7     -0.00006
 547  H 5   g 8     -0.00009
 548  H 5   g 9     -0.00002
 549  H 6   s        0.00048
 550  H 6   s        0.00597
 551  H 6   s        0.00803
 552  H 6   s        0.00209
 553  H 6   s       -0.15202
 554  H 6   px      -0.00009
 555  H 6   py       0.00000
 556  H 6   pz      -0.00015
 557  H 6   px       0.00021
 558  H 6   py       0.00025
 559  H 6   pz       0.00000
 560  H 6   px      -0.00168
 561  H 6   py       0.00247
 562  H 6   pz      -0.00038
 563  H 6   px       0.00498
 564  H 6   py      -0.00633
 565  H 6   pz       0.01420
 566  H 6   d 1      0.00003
 567  H 6   d 2     -0.00001
 568  H 6   d 3      0.00019
 569  H 6   d 4      0.00022
 570  H 6   d 5     -0.00001
 571  H 6   d 1     -0.00051
 572  H 6   d 2     -0.00047
 573  H 6   d 3     -0.00094
 574  H 6   d 4     -0.00105
 575  H 6   d 5     -0.00008
 576  H 6   d 1      0.00108
 577  H 6   d 2      0.00046
 578  H 6   d 3     -0.00516
 579  H 6   d 4     -0.00356
 580  H 6   d 5     -0.00224
 581  H 6   f 1      0.00005
 582  H 6   f 2      0.00006
 583  H 6   f 3      0.00005
 584  H 6   f 4     -0.00003
 585  H 6   f 5     -0.00009
 586  H 6   f 6     -0.00008
 587  H 6   f 7     -0.00001
 588  H 6   f 1     -0.00008
 589  H 6   f 2     -0.00020
 590  H 6   f 3     -0.00027
 591  H 6   f 4      0.00111
 592  H 6   f 5      0.00218
 593  H 6   f 6      0.00103
 594  H 6   f 7      0.00034
 595  H 6   g 1     -0.00000
 596  H 6   g 2     -0.00002
 597  H 6   g 3      0.00002
 598  H 6   g 4      0.00002
 599  H 6   g 5     -0.00001
 600  H 6   g 6     -0.00016
 601  H 6   g 7     -0.00008
 602  H 6   g 8     -0.00003
 603  H 6   g 9     -0.00002
 604  O 4   s       -0.00157
 605  O 4   s        0.01556
 606  O 4   s       -0.00284
 607  O 4   s        0.03044
 608  O 4   s        0.01203
 609  O 4   s       -0.04856
 610  O 4   px       0.00900
 611  O 4   py      -0.04900
 612  O 4   pz      -0.03476
 613  O 4   px       0.01280
 614  O 4   py      -0.07291
 615  O 4   pz      -0.05235
 616  O 4   px       0.03575
 617  O 4   py      -0.16924
 618  O 4   pz      -0.11508
 619  O 4   px       0.02526
 620  O 4   py      -0.25789
 621  O 4   pz      -0.15620
 622  O 4   px       0.02297
 623  O 4   py      -0.61007
 624  O 4   pz      -0.33830
 625  O 4   d 1      0.00030
 626  O 4   d 2     -0.00017
 627  O 4   d 3     -0.00015
 628  O 4   d 4      0.00013
 629  O 4   d 5     -0.00012
 630  O 4   d 1      0.00123
 631  O 4   d 2     -0.00026
 632  O 4   d 3      0.00026
 633  O 4   d 4      0.00113
 634  O 4   d 5     -0.00068
 635  O 4   d 1     -0.02931
 636  O 4   d 2      0.00493
 637  O 4   d 3      0.00426
 638  O 4   d 4     -0.01965
 639  O 4   d 5      0.01268
 640  O 4   d 1     -0.11718
 641  O 4   d 2     -0.00633
 642  O 4   d 3      0.02867
 643  O 4   d 4     -0.06809
 644  O 4   d 5      0.04718
 645  O 4   f 1      0.00060
 646  O 4   f 2     -0.00024
 647  O 4   f 3     -0.00019
 648  O 4   f 4     -0.00001
 649  O 4   f 5     -0.00013
 650  O 4   f 6      0.00034
 651  O 4   f 7     -0.00038
 652  O 4   f 1     -0.00357
 653  O 4   f 2      0.00278
 654  O 4   f 3      0.00126
 655  O 4   f 4      0.00184
 656  O 4   f 5      0.00165
 657  O 4   f 6     -0.00149
 658  O 4   f 7      0.00245
 659  O 4   f 1     -0.03026
 660  O 4   f 2      0.00553
 661  O 4   f 3      0.00706
 662  O 4   f 4      0.01226
 663  O 4   f 5      0.01098
 664  O 4   f 6     -0.01799
 665  O 4   f 7      0.01856
 666  O 4   g 1      0.00037
 667  O 4   g 2      0.00015
 668  O 4   g 3     -0.00021
 669  O 4   g 4      0.00003
 670  O 4   g 5     -0.00016
 671  O 4   g 6      0.00001
 672  O 4   g 7     -0.00021
 673  O 4   g 8      0.00041
 674  O 4   g 9     -0.00040
 675  O 4   g 1     -0.00337
 676  O 4   g 2      0.00266
 677  O 4   g 3      0.00152
 678  O 4   g 4     -0.00080
 679  O 4   g 5     -0.00159
 680  O 4   g 6      0.00204
 681  O 4   g 7      0.00221
 682  O 4   g 8     -0.00221
 683  O 4   g 9      0.00371
 684  O 4   h 1      0.00023
 685  O 4   h 2      0.00056
 686  O 4   h 3     -0.00016
 687  O 4   h 4     -0.00013
 688  O 4   h 5     -0.00007
 689  O 4   h 6     -0.00006
 690  O 4   h 7     -0.00042
 691  O 4   h 8      0.00016
 692  O 4   h 9      0.00003
 693  O 4   h10      0.00028
 694  O 4   h11      0.00006
 695  H 7   s        0.00607
 696  H 7   s       -0.00775
 697  H 7   s        0.28117
 698  H 7   s        0.37145
 699  H 7   s        1.59579
 700  H 7   px       0.00120
 701  H 7   py       0.00190
 702  H 7   pz       0.00009
 703  H 7   px      -0.00010
 704  H 7   py       0.00083
 705  H 7   pz      -0.00026
 706  H 7   px      -0.00399
 707  H 7   py      -0.06043
 708  H 7   pz      -0.00879
 709  H 7   px      -0.07218
 710  H 7   py      -0.13035
 711  H 7   pz       0.03915
 712  H 7   d 1     -0.00040
 713  H 7   d 2     -0.00054
 714  H 7   d 3      0.00070
 715  H 7   d 4     -0.00017
 716  H 7   d 5      0.00125
 717  H 7   d 1      0.00427
 718  H 7   d 2      0.00528
 719  H 7   d 3     -0.00593
 720  H 7   d 4      0.00215
 721  H 7   d 5     -0.01222
 722  H 7   d 1      0.01549
 723  H 7   d 2     -0.00870
 724  H 7   d 3     -0.01091
 725  H 7   d 4      0.00237
 726  H 7   d 5     -0.02997
 727  H 7   f 1      0.00030
 728  H 7   f 2     -0.00020
 729  H 7   f 3      0.00044
 730  H 7   f 4      0.00031
 731  H 7   f 5      0.00019
 732  H 7   f 6      0.00058
 733  H 7   f 7      0.00037
 734  H 7   f 1      0.00732
 735  H 7   f 2     -0.00145
 736  H 7   f 3      0.00395
 737  H 7   f 4      0.00029
 738  H 7   f 5     -0.00008
 739  H 7   f 6     -0.00086
 740  H 7   f 7      0.00652
 741  H 7   g 1     -0.00073
 742  H 7   g 2     -0.00008
 743  H 7   g 3     -0.00016
 744  H 7   g 4     -0.00010
 745  H 7   g 5      0.00021
 746  H 7   g 6      0.00001
 747  H 7   g 7      0.00040
 748  H 7   g 8     -0.00024
 749  H 7   g 9      0.00035
 750  H 8   s       -0.00862
 751  H 8   s        0.00707
 752  H 8   s       -0.37959
 753  H 8   s       -0.01716
 754  H 8   s       -2.12699
 755  H 8   px      -0.00295
 756  H 8   py       0.00234
 757  H 8   pz       0.00213
 758  H 8   px       0.00381
 759  H 8   py      -0.00384
 760  H 8   pz      -0.00126
 761  H 8   px       0.00072
 762  H 8   py      -0.04618
 763  H 8   pz      -0.03636
 764  H 8   px       0.02841
 765  H 8   py      -0.04772
 766  H 8   pz      -0.01797
 767  H 8   d 1     -0.00114
 768  H 8   d 2      0.00100
 769  H 8   d 3      0.00031
 770  H 8   d 4     -0.00068
 771  H 8   d 5     -0.00042
 772  H 8   d 1      0.01153
 773  H 8   d 2     -0.01294
 774  H 8   d 3     -0.00187
 775  H 8   d 4      0.00776
 776  H 8   d 5      0.00592
 777  H 8   d 1      0.01093
 778  H 8   d 2     -0.01440
 779  H 8   d 3     -0.00732
 780  H 8   d 4     -0.00083
 781  H 8   d 5      0.01873
 782  H 8   f 1     -0.00001
 783  H 8   f 2      0.00117
 784  H 8   f 3     -0.00033
 785  H 8   f 4      0.00078
 786  H 8   f 5      0.00032
 787  H 8   f 6      0.00027
 788  H 8   f 7     -0.00036
 789  H 8   f 1     -0.00092
 790  H 8   f 2      0.00528
 791  H 8   f 3     -0.00313
 792  H 8   f 4     -0.00002
 793  H 8   f 5      0.00191
 794  H 8   f 6      0.00422
 795  H 8   f 7     -0.00743
 796  H 8   g 1     -0.00042
 797  H 8   g 2     -0.00015
 798  H 8   g 3      0.00051
 799  H 8   g 4      0.00005
 800  H 8   g 5      0.00031
 801  H 8   g 6     -0.00008
 802  H 8   g 7      0.00017
 803  H 8   g 8     -0.00073
 804  H 8   g 9      0.00038

          Ground-State Mulliken Net Atomic Charges

     Atom                 Charge (a.u.)
  ----------------------------------------
      1 O                    -0.592331
      2 O                    -0.613548
      3 H                     0.300927
      4 H                     0.278492
      5 H                     0.263475
      6 H                     0.330775
      7 O                    -0.562421
      8 H                     0.254868
      9 H                     0.302425
     10 O                    -0.626034
     11 H                     0.315506
     12 H                     0.347866
  ----------------------------------------
  Sum of atomic charges =     0.000000

 -----------------------------------------------------------------
                    Cartesian Multipole Moments
 -----------------------------------------------------------------
    Charge (ESU x 10^10)
                 0.0000
    Dipole Moment (Debye)
         X       3.4766      Y       1.5483      Z       1.9170
       Tot       4.2613
    Quadrupole Moments (Debye-Ang)
        XX     -22.1128     XY      10.5437     YY     -19.4688
        XZ      -2.8849     YZ       2.7119     ZZ     -22.3754
    Octopole Moments (Debye-Ang^2)
       XXX      23.5665    XXY      -2.5632    XYY      -9.9366
       YYY       2.1772    XXZ       7.0049    XYZ     -13.9888
       YYZ      -1.0105    XZZ      14.9328    YZZ       3.9810
       ZZZ      13.4093
    Hexadecapole Moments (Debye-Ang^3)
      XXXX    -809.4525   XXXY      44.9078   XXYY    -101.8949
      XYYY       2.2694   YYYY    -148.1886   XXXZ     -40.6286
      XXYZ       2.3875   XYYZ     -14.1451   YYYZ      -5.7563
      XXZZ    -125.1411   XYZZ     -30.0544   YYZZ     -50.0983
      XZZZ     -65.0304   YZZZ      -9.4306   ZZZZ    -190.5057
 -----------------------------------------------------------------
 Total job time:  831.12s(wall), 25858.72s(cpu) 
 Tue Jan 14 15:08:45 2025

        *************************************************************
        *                                                           *
        *  Thank you very much for using Q-Chem.  Have a nice day.  *
        *                                                           *
        *************************************************************


