                  Welcome to Q-Chem
     A Quantum Leap Into The Future Of Chemistry


 Q-Chem 6.2 (devel), Q-Chem, Inc., Pleasanton, CA (2024)

 E. Epifanovsky,  A. T. B. Gilbert,  Xintian Feng,  Joonho Lee,  Yuezhi Mao,  
 N. Mardirossian,  P. Pokhilko,  A. White,  M. Wormit,  M. P. Coons,  
 A. L. Dempwolff,  Zhengting Gan,  D. Hait,  P. R. Horn,  L. D. Jacobson,  
 I. Kaliman,  J. Kussmann,  A. W. Lange,  Ka Un Lao,  D. S. Levine,  Jie Liu,  
 S. C. McKenzie,  A. F. Morrison,  K. D. Nanda,  F. Plasser,  D. R. Rehn,  
 M. L. Vidal,  Zhi-Qiang You,  Ying Zhu,  Huseyin Aksu,  B. Alam,  
 B. Albrecht,  A. Aldossary,  E. Alguire,  J. H. Andersen,  
 J. E. Arias-Martinez,  V. Athavale,  D. Barton,  K. Begam,  A. Behn,  
 N. Bellonzi,  Y. A. Bernard,  E. J. Berquist,  H. Burton,  A. Carreras,  
 K. Carter-Fenk,  Mathew Chow,  Romit Chakraborty,  Chandrima Chakravarty,  
 Junhan Chen,  A. D. Chien,  K. D. Closser,  V. Cofer-Shabica,  L. Cunha,  
 S. Dasgupta,  Jia Deng,  Joseph Dickinson,  M. de Wergifosse,  
 M. Diedenhofen,  Hainam Do,  Wenjie Dou,  S. Ehlert,  Po-Tung Fang,  
 S. Fatehi,  Qingguo Feng,  Jonathan Fetherolf,  T. Friedhoff,  
 Thomas Froitzheim,  Sarai Folkestad,  B. Ganoe,  J. Gayvert,  Qinghui Ge,  
 G. Gidofalvi,  M. Gimferrer,  M. Goldey,  Montgomery Gray,  J. Gomes,  
 C. Gonzalez-Espinoza,  S. Gulania,  A. Gunina,  J. A. Gyamfi,  
 M. W. D. Hanson-Heine,  P. H. P. Harbach,  A. W. Hauser,  M. F. Herbst,  
 M. Hernandez Vera,  M. Hodecker,  Z. C. Holden,  S. Houck,  Xunkun Huang,  
 Kerwin Hui,  B. C. Huynh,  K. Ikeda,  M. Ivanov,  Nayanthara K. Jayadev,  
 Hyunjun Ji,  Zuxin Jin,  Hanjie Jiang,  Subrata Jana,  B. Kaduk,  
 S. Kaehler,  R. Kang,  K. Khistyaev,  Jaehoon Kim,  Yongbin Kim,  
 P. Klunzinger,  Z. Koczor-Benda,  Joong Hoon Koh,  D. Kosenkov,  
 Saikiran Kotaru,  L. Koulias,  T. Kowalczyk,  C. M. Krauter,  K. Kue,  
 A. Kunitsa,  T. Kus,  A. Landau,  K. V. Lawler,  D. Lefrancois,  S. Lehtola,  
 Rain Li,  Shaozhi Li,  Tao E. Li,  Yi-Pei Li,  Jiashu Liang,  M. Liebenthal,  
 Hung-Hsuan Lin,  You-Sheng Lin,  Fenglai Liu,  Kuan-Yu Liu,  Xiao Liu,  
 M. Loipersberger,  A. Luenser,  C. Malbon,  Aniket Mandal,  Manisha,  
 A. Manjanath,  P. Manohar,  E. Mansoor,  S. F. Manzer,  Shan-Ping Mao,  
 A. V. Marenich,  T. Markovich,  S. Mason,  F. Matz,  S. A. Maurer,  
 Samuel May,  Alexandra McIsaac,  P. F. McLaughlin,  M. F. S. J. Menger,  
 J.-M. Mewes,  S. A. Mewes,  P. Morgante,  Mohammad Mostafanejad,  
 Madhubani Mukherjee,  J. W. Mullinax,  Quyen Nguyen,  Avik Kumar Ojha,  
 K. J. Oosterbaan,  Eno Paenurk,  Xiaoliang Pan,  G. Paran,  V. Parravicini,  
 Alexander C. Paul,  Suranjan K. Paul,  F. Pavosevic,  Zheng Pei,  S. Prager,  
 E. I. Proynov,  E. Ramos,  B. Rana,  A. E. Rask,  A. Rettig,  R. M. Richard,  
 F. Rob,  E. Rossomme,  T. Scheele,  M. Scheurer,  M. Schneider,  
 P. E. Schneider,  Tim K. Schramm,  N. Sergueev,  S. M. Sharada,  
 Hengyuan Shen,  W. Skomorowski,  D. W. Small,  C. J. Stein,  
 Alistair J. Sterling,  Yingli Su,  Yu-Chuan Su,  E. J. Sundstrom,  
 J. Talbot,  Zhen Tao,  J. Thirman,  Hung-Yi Tsai,  T. Tsuchimochi,  
 N. M. Tubman,  C. Utku,  S. P. Veccham,  O. Vydrov,  Rahel Weiss,  
 J. Wenzel,  Jonathan Wong,  J. Witte,  H. Wu,  Yanze Wu,  A. Yamada,  
 Chou-Hsun Yang,  Kun Yao,  S. Yeganeh,  S. R. Yost,  Qi Yu,  A. Zech,  
 F. Zeller,  Chongxiao Zhao,  Igor Ying Zhang,  Xing Zhang,  Yu Zhang,  
 D. Zuev,  A. Aspuru-Guzik,  A. T. Bell,  N. A. Besley,  K. B. Bravaya,  
 B. R. Brooks,  D. Casanova,  Jeng-Da Chai,  Hsing-Ta Chen,  S. Coriani,  
 C. J. Cramer,  A. E. DePrince, III,  R. A. DiStasio Jr.,  A. Dreuw,  
 B. D. Dunietz,  T. R. Furlani,  W. A. Goddard III,  S. Grimme,  
 S. Hammes-Schiffer,  T. Head-Gordon,  W. J. Hehre,  Chao-Ping Hsu,  
 T.-C. Jagau,  Yousung Jung,  A. Klamt,  Jing Kong,  D. S. Lambrecht,  
 Xiangyuan Li,  WanZhen Liang,  N. J. Mayhall,  C. W. McCurdy,  J. B. Neaton,  
 T. Neudecker,  C. Ochsenfeld,  J. A. Parkhill,  R. Peverati,  
 V. A. Rassolov,  Haisheng Ren,  Yihan Shao,  L. V. Slipchenko,  
 R. P. Steele,  J. E. Subotnik,  A. J. W. Thom,  A. Tkatchenko,  
 D. G. Truhlar,  T. Van Voorhis,  Fan Wang,  T. A. Wesolowski,  K. B. Whaley,  
 H. L. Woodcock III,  P. M. Zimmerman,  S. Faraji,  P. M. W. Gill,  
 M. Head-Gordon,  J. M. Herbert,  A. I. Krylov

 Contributors to earlier versions of Q-Chem not listed above: 
 R. D. Adamson,  B. Austin,  R. Baer,  J. Baker,  G. J. O. Beran,  
 K. Brandhorst,  S. T. Brown,  E. F. C. Byrd,  Arup K. Chakraborty,  
 G. K. L. Chan,  Chun-Min Chang,  Yunqing Chen,  C.-L. Cheng,  
 Siu Hung Chien,  D. M. Chipman,  D. L. Crittenden,  H. Dachsel,  
 R. J. Doerksen,  A. D. Dutoi,  R. G. Edgar,  J. Fosso-Tande,  
 L. Fusti-Molnar,  D. Ghosh,  A. Ghysels,  A. Golubeva-Zadorozhnaya,  
 J. Gonthier,  M. S. Gordon,  S. R. Gwaltney,  G. Hawkins,  J. E. Herr,  
 A. Heyden,  S. Hirata,  E. G. Hohenstein,  G. Kedziora,  F. J. Keil,  
 C. Kelley,  Jihan Kim,  R. A. King,  R. Z. Khaliullin,  P. P. Korambath,  
 W. Kurlancheek,  A. Laurent,  A. M. Lee,  M. S. Lee,  S. V. Levchenko,  
 Ching Yeh Lin,  D. Liotard,  E. Livshits,  R. C. Lochan,  I. Lotan,  
 L. A. Martinez-Martinez,  P. E. Maslen,  N. Nair,  D. P. O'Neill,  
 D. Neuhauser,  E. Neuscamman,  C. M. Oana,  R. Olivares-Amaya,  R. Olson,  
 T. M. Perrine,  B. Peters,  P. A. Pieniazek,  A. Prociuk,  Y. M. Rhee,  
 J. Ritchie,  M. A. Rohrdanz,  E. Rosta,  N. J. Russ,  H. F. Schaefer III,  
 M. W. Schmidt,  N. E. Schultz,  S. Sharma,  N. Shenvi,  C. D. Sherrill,  
 A. C. Simmonett,  A. Sodt,  T. Stein,  D. Stuck,  K. S. Thanthiriwatte,  
 V. Vanovschi,  L. Vogt,  Tao Wang,  A. Warshel,  M. A. Watson,  
 C. F. Williams,  Q. Wu,  X. Xu,  Jun Yang,  W. Zhang,  Yan Zhao

   Please cite Q-Chem as follows:
  "Software for the frontiers of quantum chemistry:
   An overview of developments in the Q-Chem 5 package"
   J. Chem. Phys. 155, 084801 (2021)
   https://doi.org/10.1063/5.0055522 (open access)

 Q-Chem 6.2.2 for Intel X86 EM64T Linux

 Parts of Q-Chem use Armadillo 9.900.5 (Nocturnal Misbehaviour).
 http://arma.sourceforge.net/

 Q-Chem begins on Thu Dec 19 15:14:08 2024  

 Host: compute-0-9.local
0

     Scratch files written to /scratch/keith/A0D1_1//
 Processing $rem in /home/keith/software/qchem/qchem_622/config/preferences:
 Processing $rem in /home/keith/.qchemrc:

 Checking the input file for inconsistencies... 	...done.

--------------------------------------------------------------
User input:
--------------------------------------------------------------
$molecule
read
$end

$rem
method                    b3lyp 
basis                     cc-pv5z 
mem_total                 63000
mem_static                8000
thresh                    12
scf_convergence           8
xc_grid                   000075000302
max_scf_cycles            2000
symmetry                  false
sym_ignore                true
scf_guess                 read
mom_start                 1
cis_n_roots               150
cis_triplets              false
rpa                       false 
trnss                     true
trtype                    2
n_sol                     69
nto_pairs                 2
gui                       2
print_orbitals            true
state_analysis            true
$end

$solute 
2 701 702 703 704 705 706 707 708 709 710 711 712 713 714 715 716 717 718 719 720 721 722 723 724 725 726 727 728 729 730 731 732 733 734 735 736 737 738 739 740 741 742 743 744 745 746 747 748 749 750 751 752 753 754 755 756 757 758 759 760 761 762 763 764 765 766 767 768
$end
--------------------------------------------------------------
 ----------------------------------------------------------------
             Standard Nuclear Orientation (Angstroms)
    I     Atom           X                Y                Z
 ----------------------------------------------------------------
    1      O      -1.1099400000    -0.7248500000    -1.2086700000
    2      H      -1.3468700000    -1.4365500000    -1.7421700000
    3      H      -0.4715400000    -0.9165500000    -0.5415700000
    4      O       0.4618600000    -1.9568500000     0.6271300000
    5      H      -0.2683400000    -2.5956500000     0.7356300000
    6      H       1.3045600000    -2.3541500000     0.8916300000
    7      O       0.5099600000     0.4982500000     2.1556300000
    8      H      -0.2945400000     0.9522500000     1.9616300000
    9      H       0.3481600000    -0.3231500000     1.6136300000
   10      O       0.1710600000     2.3709100000    -1.5903700000
   11      H       0.8548600000     1.8749900000    -1.0961700000
   12      H      -0.6492400000     1.8233000000    -1.5639700000
 ----------------------------------------------------------------
 Nuclear Repulsion Energy =         128.23940114 hartrees
 There are       20 alpha and       20 beta electrons
 Requested basis set is cc-pV5Z
 There are 204 shells and 804 basis functions

 Total QAlloc Memory Limit  63000 MB
 Mega-Array Size      7821 MB
 MEM_STATIC part      8000 MB


                       Distance Matrix (Angstroms)
             O (  1)   H (  2)   H (  3)   O (  4)   H (  5)   H (  6)
   H (  2)  0.920475
   H (  3)  0.943041  1.574180
   O (  4)  2.712663  3.025855  1.821900
   H (  5)  2.826391  2.940448  2.119412  0.976232
   H (  6)  3.591057  3.848243  2.697274  0.968479  1.598960
   O (  7)  3.929194  4.731185  3.199983  2.892428  3.492044  3.219514
   H (  8)  3.678090  4.531214  3.128858  3.288753  3.753846  3.825481
   H (  9)  3.201999  3.920992  2.380949  1.911828  2.513009  2.358166
   O ( 10)  3.372000  4.101696  3.510030  4.871486  5.501824  5.456312
   H ( 11)  3.260715  4.028800  3.140002  4.219859  4.960211  4.694593
   H ( 12)  2.613724  3.338423  2.929788  4.508325  4.996035  5.224787
             O (  7)   H (  8)   H (  9)   O ( 10)   H ( 11)
   H (  8)  0.943913
   H (  9)  0.997317  1.469970
   O ( 10)  4.201693  3.853062  4.189862
   H ( 11)  3.548038  3.394512  3.525845  0.978648
   H ( 12)  4.115207  3.648890  3.962221  0.986644  1.576016

 A cutoff of  1.0D-12 yielded  15376 shell pairs
 There are    215110 function pairs (    361391 Cartesian)
 Smallest overlap matrix eigenvalue = 3.22E-05

 Scale SEOQF with 1.000000e-01/1.000000e-01/1.000000e-01

 Standard Electronic Orientation quadrupole field applied
 Nucleus-field energy     =    -0.0000000012 hartrees
 Guess MOs from SCF MO coefficient file

 -----------------------------------------------------------------------
  General SCF calculation program by
  Eric Jon Sundstrom, Paul Horn, Yuezhi Mao, Dmitri Zuev, Alec White,
  David Stuck, Shaama M.S., Shane Yost, Joonho Lee, David Small,
  Daniel Levine, Susi Lehtola, Hugh Burton, Evgeny Epifanovsky,
  Bang C. Huynh
 -----------------------------------------------------------------------
 Exchange:     0.2000 Hartree-Fock + 0.0800 Slater + 0.7200 B88
 Correlation:  0.1900 VWN1RPA + 0.8100 LYP
 Using Euler-Maclaurin-Lebedev (75,302) quadrature formula
 A restricted SCF calculation will be
 performed using DIIS
 SCF converges when DIIS error is below 1.0e-08
 ---------------------------------------
  Cycle       Energy         DIIS error
 ---------------------------------------
Maximum Overlap Method Active
 MOM overlap:    20.0 / 20
    1    -305.8978219280      2.31e-10  
    2    -305.8978219280      1.39e-10  Convergence criterion met
Maximum Overlap Method Active
 MOM overlap:    20.00 / 20
 ---------------------------------------
 SCF time:   CPU 5174.17s  wall 651.00s 
 SCF   energy =  -305.89782193
 Total energy =  -305.89782193
 MAX_CIS_SUBSPACE fits in available memory
 Direct TDDFT/TDA calculation will be performed
 Exchange:     0.2000 Hartree-Fock + 0.0800 Slater + 0.7200 B88
 Correlation:  0.1900 VWN1RPA + 0.8100 LYP
 Using Euler-Maclaurin-Lebedev (75,302) quadrature formula
 Singlet excitation energies requested
 CIS energy converged when residual is below 10e- 6
   
 ***Using a Restricted Set of Single Excitations***
   
 RCIS calculation
   
 Excitations limited to defined orbital subspace
 -------------------------------------------------------------
              Orbitals in Truncated CIS space
 -------------------------------------------------------------
     2 701 702 703 704 705 706 707 708 709 710 711 712 713 714
   715 716 717 718 719 720 721 722 723 724 725 726 727 728 729
   730 731 732 733 734 735 736 737 738 739 740 741 742 743 744
   745 746 747 748 749 750 751 752 753 754 755 756 757 758 759
   760 761 762 763 764 765 766 767 768
   
    Number of Occupied Orbitals =    1  out of    20
    Number of Virtual Orbitals  =   68  out of   784
 -------------------------------------------------------------
 Number of Roots adjusted to:          68
 ---------------------------------------------------
 Iter    Rts Conv    Rts Left    Ttl Dev     Max Dev
 ---------------------------------------------------
   1        68           0      0.016664    0.000829    Roots Converged
 ---------------------------------------------------

 ---------------------------------------------------
         TDDFT/TDA Excitation Energies              
 ---------------------------------------------------

 Excited state   1: excitation energy (eV) =    1011.3114
 Total energy for state   1:                  -268.73281360 au
    Multiplicity: Singlet
    Trans. Mom.:  0.0062 X   0.0108 Y   0.0108 Z
    Strength   :     0.0067406252
    D(    2) --> V(  681) amplitude =  0.4535
    D(    2) --> V(  682) amplitude =  0.8608

 Excited state   2: excitation energy (eV) =    1011.8867
 Total energy for state   2:                  -268.71167142 au
    Multiplicity: Singlet
    Trans. Mom.: -0.0003 X   0.0005 Y  -0.0002 Z
    Strength   :     0.0000100371
    D(    2) --> V(  683) amplitude =  0.8857
    D(    2) --> V(  684) amplitude = -0.4040

 Excited state   3: excitation energy (eV) =    1012.4628
 Total energy for state   3:                  -268.69049959 au
    Multiplicity: Singlet
    Trans. Mom.:  0.0169 X  -0.0030 Y   0.0183 Z
    Strength   :     0.0156390742
    D(    2) --> V(  681) amplitude =  0.4871
    D(    2) --> V(  683) amplitude =  0.3922
    D(    2) --> V(  684) amplitude =  0.7321

 Excited state   4: excitation energy (eV) =    1014.7547
 Total energy for state   4:                  -268.60627586 au
    Multiplicity: Singlet
    Trans. Mom.: -0.0045 X   0.0075 Y  -0.0022 Z
    Strength   :     0.0020275006
    D(    2) --> V(  688) amplitude =  0.9399

 Excited state   5: excitation energy (eV) =    1016.4934
 Total energy for state   5:                  -268.54238014 au
    Multiplicity: Singlet
    Trans. Mom.: -0.0039 X   0.0017 Y  -0.0043 Z
    Strength   :     0.0009096317
    D(    2) --> V(  681) amplitude =  0.7365
    D(    2) --> V(  682) amplitude = -0.4796
    D(    2) --> V(  684) amplitude = -0.4443

 Excited state   6: excitation energy (eV) =    1018.2616
 Total energy for state   6:                  -268.47739743 au
    Multiplicity: Singlet
    Trans. Mom.:  0.0010 X  -0.0011 Y  -0.0007 Z
    Strength   :     0.0000678944
    D(    2) --> V(  684) amplitude =  0.2172
    D(    2) --> V(  685) amplitude =  0.9607

 Excited state   7: excitation energy (eV) =    1018.9911
 Total energy for state   7:                  -268.45059122 au
    Multiplicity: Singlet
    Trans. Mom.:  0.0002 X   0.0003 Y   0.0003 Z
    Strength   :     0.0000052171
    D(    2) --> V(  686) amplitude =  0.9905

 Excited state   8: excitation energy (eV) =    1019.3516
 Total energy for state   8:                  -268.43734124 au
    Multiplicity: Singlet
    Trans. Mom.:  0.0003 X   0.0006 Y   0.0000 Z
    Strength   :     0.0000096812
    D(    2) --> V(  687) amplitude =  0.9937

 Excited state   9: excitation energy (eV) =    1020.6961
 Total energy for state   9:                  -268.38793158 au
    Multiplicity: Singlet
    Trans. Mom.:  0.0021 X  -0.0043 Y   0.0002 Z
    Strength   :     0.0005797041
    D(    2) --> V(  689) amplitude =  0.9680

 Excited state  10: excitation energy (eV) =    1021.4798
 Total energy for state  10:                  -268.35913226 au
    Multiplicity: Singlet
    Trans. Mom.: -0.0000 X   0.0001 Y   0.0002 Z
    Strength   :     0.0000014135
    D(    2) --> V(  690) amplitude =  0.9885

 Excited state  11: excitation energy (eV) =    1022.4279
 Total energy for state  11:                  -268.32428963 au
    Multiplicity: Singlet
    Trans. Mom.:  0.0001 X  -0.0008 Y  -0.0002 Z
    Strength   :     0.0000158865
    D(    2) --> V(  691) amplitude =  0.9795

 Excited state  12: excitation energy (eV) =    1022.9407
 Total energy for state  12:                  -268.30544394 au
    Multiplicity: Singlet
    Trans. Mom.: -0.0004 X   0.0008 Y   0.0001 Z
    Strength   :     0.0000220929
    D(    2) --> V(  692) amplitude =  0.9727

 Excited state  13: excitation energy (eV) =    1023.3217
 Total energy for state  13:                  -268.29144340 au
    Multiplicity: Singlet
    Trans. Mom.: -0.0003 X   0.0018 Y   0.0005 Z
    Strength   :     0.0000910781
    D(    2) --> V(  693) amplitude =  0.9770

 Excited state  14: excitation energy (eV) =    1024.7102
 Total energy for state  14:                  -268.24041740 au
    Multiplicity: Singlet
    Trans. Mom.:  0.0021 X  -0.0005 Y   0.0017 Z
    Strength   :     0.0001967308
    D(    2) --> V(  694) amplitude =  0.9951

 Excited state  15: excitation energy (eV) =    1028.2243
 Total energy for state  15:                  -268.11127744 au
    Multiplicity: Singlet
    Trans. Mom.: -0.0011 X  -0.0008 Y  -0.0013 Z
    Strength   :     0.0000930303
    D(    2) --> V(  695) amplitude =  0.9989

 Excited state  16: excitation energy (eV) =    1029.3943
 Total energy for state  16:                  -268.06827835 au
    Multiplicity: Singlet
    Trans. Mom.:  0.0001 X  -0.0003 Y   0.0002 Z
    Strength   :     0.0000035059
    D(    2) --> V(  696) amplitude =  0.9999

 Excited state  17: excitation energy (eV) =    1029.6285
 Total energy for state  17:                  -268.05967184 au
    Multiplicity: Singlet
    Trans. Mom.:  0.0000 X  -0.0001 Y  -0.0001 Z
    Strength   :     0.0000008250
    D(    2) --> V(  697) amplitude =  1.0000

 Excited state  18: excitation energy (eV) =    1030.2716
 Total energy for state  18:                  -268.03603797 au
    Multiplicity: Singlet
    Trans. Mom.: -0.0019 X  -0.0009 Y  -0.0023 Z
    Strength   :     0.0002364911
    D(    2) --> V(  698) amplitude =  0.9964

 Excited state  19: excitation energy (eV) =    1032.0537
 Total energy for state  19:                  -267.97054741 au
    Multiplicity: Singlet
    Trans. Mom.: -0.0114 X  -0.0064 Y  -0.0158 Z
    Strength   :     0.0106023546
    D(    2) --> V(  699) amplitude =  0.4798
    D(    2) --> V(  700) amplitude =  0.6870
    D(    2) --> V(  701) amplitude = -0.3633
    D(    2) --> V(  703) amplitude = -0.3883

 Excited state  20: excitation energy (eV) =    1032.4869
 Total energy for state  20:                  -267.95462948 au
    Multiplicity: Singlet
    Trans. Mom.:  0.0041 X   0.0026 Y   0.0060 Z
    Strength   :     0.0014936757
    D(    2) --> V(  699) amplitude =  0.8743
    D(    2) --> V(  700) amplitude = -0.4261

 Excited state  21: excitation energy (eV) =    1033.9704
 Total energy for state  21:                  -267.90011031 au
    Multiplicity: Singlet
    Trans. Mom.:  0.0111 X   0.0018 Y   0.0126 Z
    Strength   :     0.0072588173
    D(    2) --> V(  700) amplitude =  0.5813
    D(    2) --> V(  701) amplitude =  0.6333
    D(    2) --> V(  703) amplitude =  0.4932

 Excited state  22: excitation energy (eV) =    1036.1893
 Total energy for state  22:                  -267.81856792 au
    Multiplicity: Singlet
    Trans. Mom.: -0.0057 X  -0.0002 Y  -0.0069 Z
    Strength   :     0.0020262811
    D(    2) --> V(  701) amplitude =  0.5963
    D(    2) --> V(  702) amplitude = -0.5324
    D(    2) --> V(  703) amplitude = -0.5890

 Excited state  23: excitation energy (eV) =    1036.5068
 Total energy for state  23:                  -267.80690059 au
    Multiplicity: Singlet
    Trans. Mom.: -0.0038 X  -0.0001 Y  -0.0042 Z
    Strength   :     0.0008205439
    D(    2) --> V(  701) amplitude =  0.2712
    D(    2) --> V(  702) amplitude =  0.8376
    D(    2) --> V(  703) amplitude = -0.4655

 Excited state  24: excitation energy (eV) =    1038.6472
 Total energy for state  24:                  -267.72824269 au
    Multiplicity: Singlet
    Trans. Mom.:  0.0051 X   0.0070 Y   0.0080 Z
    Strength   :     0.0035411200
    D(    2) --> V(  705) amplitude =  0.9824

 Excited state  25: excitation energy (eV) =    1038.8180
 Total energy for state  25:                  -267.72196415 au
    Multiplicity: Singlet
    Trans. Mom.: -0.0013 X  -0.0001 Y  -0.0030 Z
    Strength   :     0.0002715861
    D(    2) --> V(  708) amplitude =  0.9736

 Excited state  26: excitation energy (eV) =    1041.3169
 Total energy for state  26:                  -267.63013346 au
    Multiplicity: Singlet
    Trans. Mom.:  0.0000 X  -0.0007 Y  -0.0002 Z
    Strength   :     0.0000123533
    D(    2) --> V(  704) amplitude =  0.9970

 Excited state  27: excitation energy (eV) =    1043.8896
 Total energy for state  27:                  -267.53558680 au
    Multiplicity: Singlet
    Trans. Mom.:  0.0000 X  -0.0001 Y  -0.0000 Z
    Strength   :     0.0000002592
    D(    2) --> V(  706) amplitude =  0.9992

 Excited state  28: excitation energy (eV) =    1044.0082
 Total energy for state  28:                  -267.53122702 au
    Multiplicity: Singlet
    Trans. Mom.:  0.0004 X   0.0004 Y  -0.0004 Z
    Strength   :     0.0000115363
    D(    2) --> V(  707) amplitude =  0.9851

 Excited state  29: excitation energy (eV) =    1044.8509
 Total energy for state  29:                  -267.50025840 au
    Multiplicity: Singlet
    Trans. Mom.: -0.0007 X  -0.0006 Y   0.0004 Z
    Strength   :     0.0000236281
    D(    2) --> V(  709) amplitude =  0.9718

 Excited state  30: excitation energy (eV) =    1045.1568
 Total energy for state  30:                  -267.48901662 au
    Multiplicity: Singlet
    Trans. Mom.:  0.0020 X   0.0003 Y  -0.0000 Z
    Strength   :     0.0001029479
    D(    2) --> V(  710) amplitude =  0.8693
    D(    2) --> V(  718) amplitude =  0.3075

 Excited state  31: excitation energy (eV) =    1045.5648
 Total energy for state  31:                  -267.47402377 au
    Multiplicity: Singlet
    Trans. Mom.:  0.0017 X   0.0017 Y  -0.0030 Z
    Strength   :     0.0003703276
    D(    2) --> V(  710) amplitude = -0.4172
    D(    2) --> V(  713) amplitude =  0.2812
    D(    2) --> V(  718) amplitude =  0.6869
    D(    2) --> V(  719) amplitude = -0.3254

 Excited state  32: excitation energy (eV) =    1046.1572
 Total energy for state  32:                  -267.45225554 au
    Multiplicity: Singlet
    Trans. Mom.:  0.0004 X  -0.0001 Y   0.0002 Z
    Strength   :     0.0000054089
    D(    2) --> V(  711) amplitude =  0.9655

 Excited state  33: excitation energy (eV) =    1046.5578
 Total energy for state  33:                  -267.43753396 au
    Multiplicity: Singlet
    Trans. Mom.:  0.0005 X   0.0009 Y   0.0015 Z
    Strength   :     0.0000873295
    D(    2) --> V(  712) amplitude =  0.9608

 Excited state  34: excitation energy (eV) =    1047.6352
 Total energy for state  34:                  -267.39793803 au
    Multiplicity: Singlet
    Trans. Mom.: -0.0009 X   0.0028 Y   0.0003 Z
    Strength   :     0.0002259355
    D(    2) --> V(  713) amplitude =  0.6415
    D(    2) --> V(  719) amplitude =  0.5581
    D(    2) --> V(  721) amplitude =  0.4539

 Excited state  35: excitation energy (eV) =    1049.1400
 Total energy for state  35:                  -267.34263783 au
    Multiplicity: Singlet
    Trans. Mom.:  0.0007 X  -0.0016 Y   0.0004 Z
    Strength   :     0.0000817050
    D(    2) --> V(  713) amplitude =  0.6910
    D(    2) --> V(  715) amplitude = -0.2711
    D(    2) --> V(  718) amplitude = -0.3219
    D(    2) --> V(  719) amplitude = -0.3917
    D(    2) --> V(  721) amplitude = -0.4156

 Excited state  36: excitation energy (eV) =    1050.0294
 Total energy for state  36:                  -267.30995316 au
    Multiplicity: Singlet
    Trans. Mom.: -0.0035 X  -0.0009 Y  -0.0034 Z
    Strength   :     0.0006275972
    D(    2) --> V(  714) amplitude =  0.6481
    D(    2) --> V(  715) amplitude = -0.5000
    D(    2) --> V(  716) amplitude =  0.3657
    D(    2) --> V(  717) amplitude = -0.2711

 Excited state  37: excitation energy (eV) =    1050.3929
 Total energy for state  37:                  -267.29659560 au
    Multiplicity: Singlet
    Trans. Mom.:  0.0001 X  -0.0006 Y   0.0008 Z
    Strength   :     0.0000236810
    D(    2) --> V(  714) amplitude = -0.4185
    D(    2) --> V(  716) amplitude =  0.8963

 Excited state  38: excitation energy (eV) =    1050.5159
 Total energy for state  38:                  -267.29207423 au
    Multiplicity: Singlet
    Trans. Mom.:  0.0002 X   0.0003 Y   0.0005 Z
    Strength   :     0.0000077751
    D(    2) --> V(  714) amplitude =  0.5321
    D(    2) --> V(  715) amplitude =  0.7781

 Excited state  39: excitation energy (eV) =    1051.3040
 Total energy for state  39:                  -267.26311099 au
    Multiplicity: Singlet
    Trans. Mom.:  0.0016 X   0.0003 Y   0.0006 Z
    Strength   :     0.0000786607
    D(    2) --> V(  717) amplitude =  0.9289
    D(    2) --> V(  718) amplitude =  0.2522

 Excited state  40: excitation energy (eV) =    1052.0619
 Total energy for state  40:                  -267.23525942 au
    Multiplicity: Singlet
    Trans. Mom.: -0.0053 X  -0.0014 Y   0.0051 Z
    Strength   :     0.0014298560
    D(    2) --> V(  723) amplitude =  0.8741
    D(    2) --> V(  724) amplitude = -0.3967

 Excited state  41: excitation energy (eV) =    1052.6348
 Total energy for state  41:                  -267.21420826 au
    Multiplicity: Singlet
    Trans. Mom.: -0.0016 X  -0.0031 Y  -0.0012 Z
    Strength   :     0.0003439958
    D(    2) --> V(  718) amplitude = -0.3765
    D(    2) --> V(  719) amplitude = -0.5006
    D(    2) --> V(  721) amplitude =  0.6317
    D(    2) --> V(  724) amplitude = -0.2852
    D(    2) --> V(  725) amplitude = -0.2387

 Excited state  42: excitation energy (eV) =    1053.5819
 Total energy for state  42:                  -267.17940180 au
    Multiplicity: Singlet
    Trans. Mom.:  0.0005 X   0.0002 Y  -0.0004 Z
    Strength   :     0.0000120387
    D(    2) --> V(  720) amplitude =  0.9803

 Excited state  43: excitation energy (eV) =    1055.9887
 Total energy for state  43:                  -267.09095297 au
    Multiplicity: Singlet
    Trans. Mom.: -0.0037 X   0.0066 Y  -0.0021 Z
    Strength   :     0.0015972238
    D(    2) --> V(  721) amplitude =  0.3423
    D(    2) --> V(  723) amplitude =  0.2684
    D(    2) --> V(  724) amplitude =  0.5520
    D(    2) --> V(  725) amplitude =  0.5773
    D(    2) --> V(  726) amplitude =  0.2861

 Excited state  44: excitation energy (eV) =    1056.5483
 Total energy for state  44:                  -267.07038876 au
    Multiplicity: Singlet
    Trans. Mom.:  0.0002 X   0.0008 Y  -0.0004 Z
    Strength   :     0.0000212929
    D(    2) --> V(  722) amplitude =  0.9766

 Excited state  45: excitation energy (eV) =    1058.4863
 Total energy for state  45:                  -266.99916656 au
    Multiplicity: Singlet
    Trans. Mom.:  0.0066 X  -0.0026 Y   0.0006 Z
    Strength   :     0.0013287145
    D(    2) --> V(  723) amplitude =  0.3396
    D(    2) --> V(  724) amplitude =  0.5945
    D(    2) --> V(  725) amplitude = -0.5721
    D(    2) --> V(  726) amplitude = -0.3715

 Excited state  46: excitation energy (eV) =    1060.7918
 Total energy for state  46:                  -266.91444199 au
    Multiplicity: Singlet
    Trans. Mom.:  0.0059 X   0.0035 Y  -0.0082 Z
    Strength   :     0.0029637110
    D(    2) --> V(  725) amplitude =  0.3102
    D(    2) --> V(  726) amplitude = -0.3113
    D(    2) --> V(  727) amplitude =  0.8783

 Excited state  47: excitation energy (eV) =    1062.1794
 Total energy for state  47:                  -266.86344714 au
    Multiplicity: Singlet
    Trans. Mom.:  0.0017 X   0.0014 Y  -0.0036 Z
    Strength   :     0.0004772382
    D(    2) --> V(  725) amplitude = -0.4020
    D(    2) --> V(  726) amplitude =  0.8076
    D(    2) --> V(  727) amplitude =  0.4272

 Excited state  48: excitation energy (eV) =    1066.0263
 Total energy for state  48:                  -266.72207621 au
    Multiplicity: Singlet
    Trans. Mom.: -0.0028 X  -0.0036 Y  -0.0027 Z
    Strength   :     0.0007309105
    D(    2) --> V(  728) amplitude =  0.9923

 Excited state  49: excitation energy (eV) =    1079.1060
 Total energy for state  49:                  -266.24140814 au
    Multiplicity: Singlet
    Trans. Mom.:  0.0004 X  -0.0006 Y   0.0001 Z
    Strength   :     0.0000130570
    D(    2) --> V(  729) amplitude =  0.9977

 Excited state  50: excitation energy (eV) =    1080.3193
 Total energy for state  50:                  -266.19682033 au
    Multiplicity: Singlet
    Trans. Mom.:  0.0038 X  -0.0081 Y   0.0025 Z
    Strength   :     0.0022855741
    D(    2) --> V(  730) amplitude =  0.7995
    D(    2) --> V(  735) amplitude =  0.5662

 Excited state  51: excitation energy (eV) =    1082.2074
 Total energy for state  51:                  -266.12743425 au
    Multiplicity: Singlet
    Trans. Mom.: -0.0006 X   0.0016 Y  -0.0000 Z
    Strength   :     0.0000785809
    D(    2) --> V(  730) amplitude =  0.2779
    D(    2) --> V(  731) amplitude =  0.9412

 Excited state  52: excitation energy (eV) =    1082.6449
 Total energy for state  52:                  -266.11135584 au
    Multiplicity: Singlet
    Trans. Mom.:  0.0010 X  -0.0062 Y  -0.0008 Z
    Strength   :     0.0010568456
    D(    2) --> V(  730) amplitude = -0.5186
    D(    2) --> V(  731) amplitude =  0.3139
    D(    2) --> V(  732) amplitude = -0.2491
    D(    2) --> V(  735) amplitude =  0.7231

 Excited state  53: excitation energy (eV) =    1083.2903
 Total energy for state  53:                  -266.08763642 au
    Multiplicity: Singlet
    Trans. Mom.:  0.0005 X  -0.0026 Y   0.0001 Z
    Strength   :     0.0001871435
    D(    2) --> V(  732) amplitude =  0.9666
    D(    2) --> V(  735) amplitude =  0.2200

 Excited state  54: excitation energy (eV) =    1086.4201
 Total energy for state  54:                  -265.97261943 au
    Multiplicity: Singlet
    Trans. Mom.:  0.0001 X  -0.0001 Y  -0.0003 Z
    Strength   :     0.0000036892
    D(    2) --> V(  733) amplitude =  0.9752

 Excited state  55: excitation energy (eV) =    1087.1324
 Total energy for state  55:                  -265.94644277 au
    Multiplicity: Singlet
    Trans. Mom.: -0.0001 X  -0.0004 Y  -0.0000 Z
    Strength   :     0.0000042566
    D(    2) --> V(  734) amplitude =  0.9782

 Excited state  56: excitation energy (eV) =    1095.9943
 Total energy for state  56:                  -265.62077268 au
    Multiplicity: Singlet
    Trans. Mom.: -0.0120 X  -0.0049 Y  -0.0158 Z
    Strength   :     0.0111674492
    D(    2) --> V(  736) amplitude =  0.9983

 Excited state  57: excitation energy (eV) =    1105.4014
 Total energy for state  57:                  -265.27507021 au
    Multiplicity: Singlet
    Trans. Mom.:  0.0130 X  -0.0008 Y  -0.0100 Z
    Strength   :     0.0072617757
    D(    2) --> V(  737) amplitude =  0.9758

 Excited state  58: excitation energy (eV) =    1108.5650
 Total energy for state  58:                  -265.15880787 au
    Multiplicity: Singlet
    Trans. Mom.: -0.0037 X   0.0194 Y  -0.0019 Z
    Strength   :     0.0106811595
    D(    2) --> V(  739) amplitude =  0.9452

 Excited state  59: excitation energy (eV) =    1115.0644
 Total energy for state  59:                  -264.91995955 au
    Multiplicity: Singlet
    Trans. Mom.:  0.0001 X   0.0005 Y   0.0002 Z
    Strength   :     0.0000072185
    D(    2) --> V(  738) amplitude =  0.9926

 Excited state  60: excitation energy (eV) =    1115.2089
 Total energy for state  60:                  -264.91465019 au
    Multiplicity: Singlet
    Trans. Mom.:  0.0006 X  -0.0012 Y  -0.0010 Z
    Strength   :     0.0000733902
    D(    2) --> V(  741) amplitude = -0.4412
    D(    2) --> V(  743) amplitude = -0.5248
    D(    2) --> V(  744) amplitude =  0.2233
    D(    2) --> V(  745) amplitude =  0.6008

 Excited state  61: excitation energy (eV) =    1116.2335
 Total energy for state  61:                  -264.87699662 au
    Multiplicity: Singlet
    Trans. Mom.:  0.0001 X  -0.0003 Y  -0.0001 Z
    Strength   :     0.0000023952
    D(    2) --> V(  740) amplitude =  0.9829

 Excited state  62: excitation energy (eV) =    1117.1103
 Total energy for state  62:                  -264.84477549 au
    Multiplicity: Singlet
    Trans. Mom.:  0.0012 X  -0.0014 Y  -0.0005 Z
    Strength   :     0.0000998921
    D(    2) --> V(  741) amplitude =  0.8821
    D(    2) --> V(  743) amplitude = -0.2973
    D(    2) --> V(  745) amplitude =  0.2586

 Excited state  63: excitation energy (eV) =    1118.2358
 Total energy for state  63:                  -264.80341425 au
    Multiplicity: Singlet
    Trans. Mom.:  0.0002 X   0.0000 Y  -0.0000 Z
    Strength   :     0.0000008065
    D(    2) --> V(  742) amplitude =  0.9596
    D(    2) --> V(  743) amplitude =  0.2162

 Excited state  64: excitation energy (eV) =    1120.0897
 Total energy for state  64:                  -264.73528547 au
    Multiplicity: Singlet
    Trans. Mom.:  0.0014 X   0.0027 Y   0.0004 Z
    Strength   :     0.0002575486
    D(    2) --> V(  743) amplitude =  0.7382
    D(    2) --> V(  744) amplitude =  0.3474
    D(    2) --> V(  745) amplitude =  0.5297

 Excited state  65: excitation energy (eV) =    1121.3583
 Total energy for state  65:                  -264.68866278 au
    Multiplicity: Singlet
    Trans. Mom.: -0.0007 X  -0.0025 Y  -0.0001 Z
    Strength   :     0.0001823669
    D(    2) --> V(  744) amplitude =  0.8946
    D(    2) --> V(  745) amplitude = -0.4126

 Excited state  66: excitation energy (eV) =    1126.1272
 Total energy for state  66:                  -264.51341247 au
    Multiplicity: Singlet
    Trans. Mom.: -0.0001 X  -0.0013 Y   0.0000 Z
    Strength   :     0.0000480022
    D(    2) --> V(  746) amplitude =  0.9320
    D(    2) --> V(  748) amplitude = -0.2197

 Excited state  67: excitation energy (eV) =    1126.1725
 Total energy for state  67:                  -264.51174651 au
    Multiplicity: Singlet
    Trans. Mom.: -0.0001 X  -0.0008 Y  -0.0000 Z
    Strength   :     0.0000164134
    D(    2) --> V(  747) amplitude =  0.9753

 Excited state  68: excitation energy (eV) =    1126.7946
 Total energy for state  68:                  -264.48888423 au
    Multiplicity: Singlet
    Trans. Mom.:  0.0009 X   0.0030 Y   0.0005 Z
    Strength   :     0.0002711121
    D(    2) --> V(  745) amplitude = -0.2364
    D(    2) --> V(  746) amplitude =  0.2834
    D(    2) --> V(  748) amplitude =  0.9259

 ---------------------------------------------------
  SETman timing summary (seconds)
  CPU time             37590.50s
  System time              0.00s
  Wall time             4723.96s
================================================================================
                             Excited State Analysis
================================================================================

  Ground State (Reference) :
  -------------------------
    NOs
      Occupation of frontier NOs:
         0.0000   0.0000   2.0000   2.0000
      Number of electrons: 40.000000
      Number of unpaired electrons: n_u = -0.00000, n_u,nl =  0.00000
    
    Mulliken Population Analysis (State DM)
    Atom      Charge (e)
    --------------------
     1 O       -0.683007
     2 H        0.280539
     3 H        0.388055
     4 O       -0.651649
     5 H        0.339507
     6 H        0.342418
     7 O       -0.662776
     8 H        0.295068
     9 H        0.355023
    10 O       -0.649932
    11 H        0.308630
    12 H        0.338121
    --------------------
    Sum:       -0.000000
    
    Multipole moment analysis of the density matrix
      Molecular charge:                      -0.000000
      Number of electrons:                   40.000000
        Center of electronic charge [Ang]: [ -0.003571,  -0.003407,   0.000055]
      Total nuclear charge:                  40.000000
        Center of nuclear charge [Ang]:    [ -0.006486,  -0.036896,   0.003210]
      Dipole moment [D]:                     6.486791
        Cartesian components [D]:          [ -0.560018,  -6.434073,   0.606252]
      RMS size of the density [Ang]:         2.387030
        Cartesian components [Ang]:        [  0.776315,   1.654412,   1.535633]
    

  ----------------------------------------------------------------------------
                  Analysis of Unrelaxed Density Matrices
  ----------------------------------------------------------------------------

  Singlet 1 :
  -------------------------
    NOs
      Occupation of frontier NOs:
         0.0000   1.0000   1.0000   2.0000
      Number of electrons: 40.000000
      Number of unpaired electrons: n_u =  2.00000, n_u,nl =  2.00000
      NO participation ratio (PR_NO):  2.000000
    
    NDOs
      Leading detachment eigenvalues:
        -1.0000  -0.0000
      Leading attachment eigenvalues:
         1.0000   0.0000
      Number of detached / attached electrons: p_D =  1.0000, p_A =  1.0000
      Number of involved orbitals: PR_D =  1.000000, PR_A =  1.000000
    
    Mulliken Population Analysis (State/Difference DM)
    Atom      Charge (e)              h+              e-           Del q
    --------------------------------------------------------------------
     1 O       -0.595715        0.990957       -0.903665        0.087292
     2 H        0.230237        0.004584       -0.054886       -0.050302
     3 H        0.369617        0.004458       -0.022896       -0.018438
     4 O       -0.658518        0.000000       -0.006869       -0.006869
     5 H        0.337548        0.000000       -0.001960       -0.001960
     6 H        0.341100        0.000000       -0.001318       -0.001318
     7 O       -0.665417        0.000000       -0.002642       -0.002642
     8 H        0.294632       -0.000000       -0.000437       -0.000437
     9 H        0.354219        0.000000       -0.000804       -0.000804
    10 O       -0.653053        0.000000       -0.003122       -0.003121
    11 H        0.307809        0.000000       -0.000822       -0.000822
    12 H        0.337542       -0.000001       -0.000578       -0.000579
    --------------------------------------------------------------------
    Sum:        0.000000        1.000000       -1.000000        0.000000
    
    Multipole moment analysis of the density matrix
      Molecular charge:                      0.000000
      Number of electrons:                   40.000000
        Center of electronic charge [Ang]: [ -0.003153,  -0.004507,   0.000634]
      Total nuclear charge:                  40.000000
        Center of nuclear charge [Ang]:    [ -0.006486,  -0.036896,   0.003210]
      Dipole moment [D]:                     6.275202
        Cartesian components [D]:          [ -0.640323,  -6.222804,   0.494832]
      RMS size of the density [Ang]:         2.389633
        Cartesian components [Ang]:        [  0.778214,   1.656335,   1.536648]
    
    Exciton analysis of the difference density matrix
      <r_h> [Ang]:                  [ -1.109885,  -0.724992,  -1.208656]
      <r_e> [Ang]:                  [ -1.093166,  -0.768977,  -1.185459]
      |<r_e - r_h>| [Ang]:            0.052463
      Hole size [Ang]:                0.122785
        Cartesian components [Ang]: [  0.070887,   0.070891,   0.070893]
      Electron size [Ang]:            0.734420
        Cartesian components [Ang]: [  0.399742,   0.440848,   0.430387]

  Singlet 2 :
  -------------------------
    NOs
      Occupation of frontier NOs:
         0.0000   1.0000   1.0000   2.0000
      Number of electrons: 40.000000
      Number of unpaired electrons: n_u =  2.00000, n_u,nl =  2.00000
      NO participation ratio (PR_NO):  2.000000
    
    NDOs
      Leading detachment eigenvalues:
        -1.0000  -0.0000
      Leading attachment eigenvalues:
         1.0000   0.0000
      Number of detached / attached electrons: p_D =  1.0000, p_A =  1.0000
      Number of involved orbitals: PR_D =  1.000000, PR_A =  1.000000
    
    Mulliken Population Analysis (State/Difference DM)
    Atom      Charge (e)              h+              e-           Del q
    --------------------------------------------------------------------
     1 O       -0.630045        0.990957       -0.937995        0.052962
     2 H        0.271186        0.004584       -0.013936       -0.009353
     3 H        0.385083        0.004458       -0.007431       -0.002973
     4 O       -0.669425        0.000000       -0.017776       -0.017776
     5 H        0.338336        0.000000       -0.001171       -0.001171
     6 H        0.339369        0.000000       -0.003049       -0.003049
     7 O       -0.665109        0.000000       -0.002334       -0.002334
     8 H        0.294850       -0.000000       -0.000218       -0.000218
     9 H        0.353660        0.000000       -0.001364       -0.001363
    10 O       -0.658580        0.000000       -0.008648       -0.008648
    11 H        0.306953        0.000000       -0.001678       -0.001678
    12 H        0.333721       -0.000001       -0.004400       -0.004400
    --------------------------------------------------------------------
    Sum:       -0.000000        1.000000       -1.000000       -0.000000
    
    Multipole moment analysis of the density matrix
      Molecular charge:                      -0.000000
      Number of electrons:                   40.000000
        Center of electronic charge [Ang]: [ -0.001623,  -0.004884,   0.001501]
      Total nuclear charge:                  40.000000
        Center of nuclear charge [Ang]:    [ -0.006486,  -0.036896,   0.003210]
      Dipole moment [D]:                     6.229593
        Cartesian components [D]:          [ -0.934320,  -6.150376,   0.328268]
      RMS size of the density [Ang]:         2.389347
        Cartesian components [Ang]:        [  0.776586,   1.657161,   1.536135]
    
    Exciton analysis of the difference density matrix
      <r_h> [Ang]:                  [ -1.109885,  -0.724992,  -1.208656]
      <r_e> [Ang]:                  [ -1.031957,  -0.784056,  -1.150782]
      |<r_e - r_h>| [Ang]:            0.113626
      Hole size [Ang]:                0.122785
        Cartesian components [Ang]: [  0.070887,   0.070891,   0.070893]
      Electron size [Ang]:            0.819940
        Cartesian components [Ang]: [  0.434002,   0.529747,   0.450901]

  Singlet 3 :
  -------------------------
    NOs
      Occupation of frontier NOs:
         0.0000   1.0000   1.0000   2.0000
      Number of electrons: 40.000000
      Number of unpaired electrons: n_u =  2.00000, n_u,nl =  2.00000
      NO participation ratio (PR_NO):  2.000000
    
    NDOs
      Leading detachment eigenvalues:
        -1.0000  -0.0000
      Leading attachment eigenvalues:
         1.0000   0.0000
      Number of detached / attached electrons: p_D =  1.0000, p_A =  1.0000
      Number of involved orbitals: PR_D =  1.000000, PR_A =  1.000000
    
    Mulliken Population Analysis (State/Difference DM)
    Atom      Charge (e)              h+              e-           Del q
    --------------------------------------------------------------------
     1 O       -0.500062        0.990957       -0.808012        0.182945
     2 H        0.224899        0.004584       -0.060224       -0.055640
     3 H        0.306241        0.004458       -0.086272       -0.081814
     4 O       -0.672196        0.000000       -0.020548       -0.020547
     5 H        0.333984        0.000000       -0.005524       -0.005523
     6 H        0.340524        0.000000       -0.001895       -0.001895
     7 O       -0.670175        0.000000       -0.007400       -0.007400
     8 H        0.294230       -0.000000       -0.000838       -0.000838
     9 H        0.353630        0.000000       -0.001394       -0.001393
    10 O       -0.655231        0.000000       -0.005299       -0.005299
    11 H        0.307901        0.000000       -0.000729       -0.000729
    12 H        0.336255       -0.000001       -0.001866       -0.001867
    --------------------------------------------------------------------
    Sum:       -0.000000        1.000000       -1.000000       -0.000000
    
    Multipole moment analysis of the density matrix
      Molecular charge:                      -0.000000
      Number of electrons:                   40.000000
        Center of electronic charge [Ang]: [ -0.000929,  -0.005100,   0.002663]
      Total nuclear charge:                  40.000000
        Center of nuclear charge [Ang]:    [ -0.006486,  -0.036896,   0.003210]
      Dipole moment [D]:                     6.202414
        Cartesian components [D]:          [ -1.067666,  -6.108928,   0.105035]
      RMS size of the density [Ang]:         2.389319
        Cartesian components [Ang]:        [  0.776175,   1.657051,   1.536418]
    
    Exciton analysis of the difference density matrix
      <r_h> [Ang]:                  [ -1.109885,  -0.724992,  -1.208656]
      <r_e> [Ang]:                  [ -1.004195,  -0.792686,  -1.104306]
      |<r_e - r_h>| [Ang]:            0.163223
      Hole size [Ang]:                0.122785
        Cartesian components [Ang]: [  0.070887,   0.070891,   0.070893]
      Electron size [Ang]:            0.902637
        Cartesian components [Ang]: [  0.468300,   0.502409,   0.585692]

  Singlet 4 :
  -------------------------
    NOs
      Occupation of frontier NOs:
         0.0000   1.0000   1.0000   2.0000
      Number of electrons: 40.000000
      Number of unpaired electrons: n_u =  2.00000, n_u,nl =  2.00000
      NO participation ratio (PR_NO):  2.000000
    
    NDOs
      Leading detachment eigenvalues:
        -1.0000  -0.0000
      Leading attachment eigenvalues:
         1.0000   0.0000
      Number of detached / attached electrons: p_D =  1.0000, p_A =  1.0000
      Number of involved orbitals: PR_D =  1.000000, PR_A =  1.000000
    
    Mulliken Population Analysis (State/Difference DM)
    Atom      Charge (e)              h+              e-           Del q
    --------------------------------------------------------------------
     1 O       -0.505111        0.990957       -0.813061        0.177896
     2 H        0.226967        0.004584       -0.058156       -0.053572
     3 H        0.311308        0.004458       -0.081205       -0.076747
     4 O       -0.677696        0.000000       -0.026047       -0.026047
     5 H        0.334262        0.000000       -0.005245       -0.005245
     6 H        0.337603        0.000000       -0.004815       -0.004815
     7 O       -0.666139        0.000000       -0.003363       -0.003363
     8 H        0.291648       -0.000000       -0.003420       -0.003420
     9 H        0.352765        0.000000       -0.002259       -0.002258
    10 O       -0.651556        0.000000       -0.001625       -0.001624
    11 H        0.308201        0.000000       -0.000430       -0.000430
    12 H        0.337747       -0.000001       -0.000373       -0.000374
    --------------------------------------------------------------------
    Sum:       -0.000000        1.000000       -1.000000       -0.000000
    
    Multipole moment analysis of the density matrix
      Molecular charge:                      -0.000000
      Number of electrons:                   40.000000
        Center of electronic charge [Ang]: [ -0.000707,  -0.005464,   0.002515]
      Total nuclear charge:                  40.000000
        Center of nuclear charge [Ang]:    [ -0.006486,  -0.036896,   0.003210]
      Dipole moment [D]:                     6.141552
        Cartesian components [D]:          [ -1.110260,  -6.038888,   0.133455]
      RMS size of the density [Ang]:         2.389328
        Cartesian components [Ang]:        [  0.776025,   1.656920,   1.536648]
    
    Exciton analysis of the difference density matrix
      <r_h> [Ang]:                  [ -1.109885,  -0.724992,  -1.208656]
      <r_e> [Ang]:                  [ -0.995328,  -0.807267,  -1.110222]
      |<r_e - r_h>| [Ang]:            0.171994
      Hole size [Ang]:                0.122785
        Cartesian components [Ang]: [  0.070887,   0.070891,   0.070893]
      Electron size [Ang]:            0.893240
        Cartesian components [Ang]: [  0.477189,   0.460356,   0.598532]

  Singlet 5 :
  -------------------------
    NOs
      Occupation of frontier NOs:
         0.0000   1.0000   1.0000   2.0000
      Number of electrons: 40.000000
      Number of unpaired electrons: n_u =  2.00000, n_u,nl =  2.00000
      NO participation ratio (PR_NO):  2.000000
    
    NDOs
      Leading detachment eigenvalues:
        -1.0000  -0.0000
      Leading attachment eigenvalues:
         1.0000   0.0000
      Number of detached / attached electrons: p_D =  1.0000, p_A =  1.0000
      Number of involved orbitals: PR_D =  1.000000, PR_A =  1.000000
    
    Mulliken Population Analysis (State/Difference DM)
    Atom      Charge (e)              h+              e-           Del q
    --------------------------------------------------------------------
     1 O        0.278458        0.990957       -0.029492        0.961465
     2 H        0.278319        0.004584       -0.006804       -0.002220
     3 H        0.388050        0.004458       -0.004463       -0.000005
     4 O       -1.242199        0.000000       -0.590550       -0.590550
     5 H        0.174182        0.000000       -0.165325       -0.165325
     6 H        0.266084        0.000000       -0.076334       -0.076334
     7 O       -0.736104        0.000000       -0.073329       -0.073329
     8 H        0.276806       -0.000000       -0.018262       -0.018262
     9 H        0.319877        0.000000       -0.035147       -0.035146
    10 O       -0.650118        0.000000       -0.000187       -0.000187
    11 H        0.308550        0.000000       -0.000081       -0.000081
    12 H        0.338094       -0.000001       -0.000026       -0.000027
    --------------------------------------------------------------------
    Sum:        0.000000        1.000000       -1.000000        0.000000
    
    Multipole moment analysis of the density matrix
      Molecular charge:                      0.000000
      Number of electrons:                   40.000000
        Center of electronic charge [Ang]: [  0.032862,  -0.027742,   0.049176]
      Total nuclear charge:                  40.000000
        Center of nuclear charge [Ang]:    [ -0.006486,  -0.036896,   0.003210]
      Dipole moment [D]:                     11.757371
        Cartesian components [D]:          [ -7.559804,  -1.758658,  -8.831322]
      RMS size of the density [Ang]:         2.396589
        Cartesian components [Ang]:        [  0.762520,   1.678278,   1.531531]
    
    Exciton analysis of the difference density matrix
      <r_h> [Ang]:                  [ -1.109885,  -0.724992,  -1.208656]
      <r_e> [Ang]:                  [  0.347431,  -1.698387,   0.756193]
      |<r_e - r_h>| [Ang]:            2.632850
      Hole size [Ang]:                0.122785
        Cartesian components [Ang]: [  0.070887,   0.070891,   0.070893]
      Electron size [Ang]:            1.286520
        Cartesian components [Ang]: [  0.556534,   0.926259,   0.698174]

  Singlet 6 :
  -------------------------
    NOs
      Occupation of frontier NOs:
         0.0000   1.0000   1.0000   2.0000
      Number of electrons: 40.000000
      Number of unpaired electrons: n_u =  2.00000, n_u,nl =  2.00000
      NO participation ratio (PR_NO):  2.000000
    
    NDOs
      Leading detachment eigenvalues:
        -1.0000  -0.0000
      Leading attachment eigenvalues:
         1.0000   0.0000
      Number of detached / attached electrons: p_D =  1.0000, p_A =  1.0000
      Number of involved orbitals: PR_D =  1.000000, PR_A =  1.000000
    
    Mulliken Population Analysis (State/Difference DM)
    Atom      Charge (e)              h+              e-           Del q
    --------------------------------------------------------------------
     1 O        0.303227        0.990957       -0.004723        0.986234
     2 H        0.283210        0.004584       -0.001912        0.002671
     3 H        0.387431        0.004458       -0.005083       -0.000625
     4 O       -1.038849        0.000000       -0.387201       -0.387200
     5 H        0.318226        0.000000       -0.021282       -0.021281
     6 H        0.328349        0.000000       -0.014070       -0.014070
     7 O       -0.945877        0.000000       -0.283101       -0.283101
     8 H        0.208677       -0.000000       -0.086391       -0.086391
     9 H        0.163104        0.000000       -0.191920       -0.191920
    10 O       -0.653815        0.000000       -0.003883       -0.003883
    11 H        0.308483        0.000000       -0.000148       -0.000148
    12 H        0.337835       -0.000001       -0.000285       -0.000286
    --------------------------------------------------------------------
    Sum:       -0.000000        1.000000       -1.000000       -0.000000
    
    Multipole moment analysis of the density matrix
      Molecular charge:                      -0.000000
      Number of electrons:                   40.000000
        Center of electronic charge [Ang]: [  0.033773,  -0.001025,   0.064944]
      Total nuclear charge:                  40.000000
        Center of nuclear charge [Ang]:    [ -0.006486,  -0.036896,   0.003210]
      Dipole moment [D]:                     15.748107
        Cartesian components [D]:          [ -7.734824,  -6.891736, -11.860833]
      RMS size of the density [Ang]:         2.394903
        Cartesian components [Ang]:        [  0.760314,   1.665659,   1.543717]
    
    Exciton analysis of the difference density matrix
      <r_h> [Ang]:                  [ -1.109885,  -0.724992,  -1.208656]
      <r_e> [Ang]:                  [  0.383869,  -0.629709,   1.386920]
      |<r_e - r_h>| [Ang]:            2.996231
      Hole size [Ang]:                0.122785
        Cartesian components [Ang]: [  0.070887,   0.070891,   0.070893]
      Electron size [Ang]:            1.576467
        Cartesian components [Ang]: [  0.388762,   1.275705,   0.840648]

  Singlet 7 :
  -------------------------
    NOs
      Occupation of frontier NOs:
         0.0000   1.0000   1.0000   2.0000
      Number of electrons: 40.000000
      Number of unpaired electrons: n_u =  2.00000, n_u,nl =  2.00000
      NO participation ratio (PR_NO):  2.000000
    
    NDOs
      Leading detachment eigenvalues:
        -1.0000  -0.0000
      Leading attachment eigenvalues:
         1.0000   0.0000
      Number of detached / attached electrons: p_D =  1.0000, p_A =  1.0000
      Number of involved orbitals: PR_D =  1.000000, PR_A =  1.000000
    
    Mulliken Population Analysis (State/Difference DM)
    Atom      Charge (e)              h+              e-           Del q
    --------------------------------------------------------------------
     1 O        0.306891        0.990957       -0.001059        0.989899
     2 H        0.284988        0.004584       -0.000135        0.004449
     3 H        0.392366        0.004458       -0.000148        0.004310
     4 O       -0.653419        0.000000       -0.001771       -0.001770
     5 H        0.339445        0.000000       -0.000063       -0.000063
     6 H        0.342279        0.000000       -0.000139       -0.000139
     7 O       -0.663696        0.000000       -0.000920       -0.000920
     8 H        0.294998       -0.000000       -0.000070       -0.000070
     9 H        0.354675        0.000000       -0.000348       -0.000348
    10 O       -1.634232        0.000000       -0.984301       -0.984300
    11 H        0.303184        0.000000       -0.005447       -0.005447
    12 H        0.332521       -0.000001       -0.005599       -0.005600
    --------------------------------------------------------------------
    Sum:        0.000000        1.000000       -1.000000        0.000000
    
    Multipole moment analysis of the density matrix
      Molecular charge:                      0.000000
      Number of electrons:                   40.000000
        Center of electronic charge [Ang]: [  0.028475,   0.072717,  -0.008919]
      Total nuclear charge:                  40.000000
        Center of nuclear charge [Ang]:    [ -0.006486,  -0.036896,   0.003210]
      Dipole moment [D]:                     22.227376
        Cartesian components [D]:          [ -6.716913, -21.059653,   2.330313]
      RMS size of the density [Ang]:         2.411883
        Cartesian components [Ang]:        [  0.757017,   1.690464,   1.544810]
    
    Exciton analysis of the difference density matrix
      <r_h> [Ang]:                  [ -1.109885,  -0.724992,  -1.208656]
      <r_e> [Ang]:                  [  0.171946,   2.319971,  -1.567596]
      |<r_e - r_h>| [Ang]:            3.323210
      Hole size [Ang]:                0.122785
        Cartesian components [Ang]: [  0.070887,   0.070891,   0.070893]
      Electron size [Ang]:            0.617284
        Cartesian components [Ang]: [  0.235792,   0.427882,   0.377305]

  Singlet 8 :
  -------------------------
    NOs
      Occupation of frontier NOs:
         0.0000   1.0000   1.0000   2.0000
      Number of electrons: 40.000000
      Number of unpaired electrons: n_u =  2.00000, n_u,nl =  2.00000
      NO participation ratio (PR_NO):  2.000000
    
    NDOs
      Leading detachment eigenvalues:
        -1.0000  -0.0000
      Leading attachment eigenvalues:
         1.0000   0.0000
      Number of detached / attached electrons: p_D =  1.0000, p_A =  1.0000
      Number of involved orbitals: PR_D =  1.000000, PR_A =  1.000000
    
    Mulliken Population Analysis (State/Difference DM)
    Atom      Charge (e)              h+              e-           Del q
    --------------------------------------------------------------------
     1 O        0.306318        0.990957       -0.001632        0.989325
     2 H        0.284838        0.004584       -0.000285        0.004299
     3 H        0.392200        0.004458       -0.000314        0.004144
     4 O       -0.653553        0.000000       -0.001905       -0.001904
     5 H        0.339418        0.000000       -0.000090       -0.000090
     6 H        0.342046        0.000000       -0.000372       -0.000372
     7 O       -0.664170        0.000000       -0.001395       -0.001395
     8 H        0.294968       -0.000000       -0.000100       -0.000100
     9 H        0.354570        0.000000       -0.000453       -0.000453
    10 O       -1.618464        0.000000       -0.968532       -0.968532
    11 H        0.296084        0.000000       -0.012546       -0.012546
    12 H        0.325745       -0.000001       -0.012375       -0.012376
    --------------------------------------------------------------------
    Sum:        0.000000        1.000000       -1.000000        0.000000
    
    Multipole moment analysis of the density matrix
      Molecular charge:                      0.000000
      Number of electrons:                   40.000000
        Center of electronic charge [Ang]: [  0.028389,   0.073501,  -0.009014]
      Total nuclear charge:                  40.000000
        Center of nuclear charge [Ang]:    [ -0.006486,  -0.036896,   0.003210]
      Dipole moment [D]:                     22.367191
        Cartesian components [D]:          [ -6.700342, -21.210395,   2.348576]
      RMS size of the density [Ang]:         2.412946
        Cartesian components [Ang]:        [  0.757233,   1.691699,   1.545011]
    
    Exciton analysis of the difference density matrix
      <r_h> [Ang]:                  [ -1.109885,  -0.724992,  -1.208656]
      <r_e> [Ang]:                  [  0.168496,   2.351354,  -1.571398]
      |<r_e - r_h>| [Ang]:            3.351082
      Hole size [Ang]:                0.122785
        Cartesian components [Ang]: [  0.070887,   0.070891,   0.070893]
      Electron size [Ang]:            0.658196
        Cartesian components [Ang]: [  0.263987,   0.456255,   0.394163]

  Singlet 9 :
  -------------------------
    NOs
      Occupation of frontier NOs:
         0.0000   1.0000   1.0000   2.0000
      Number of electrons: 40.000000
      Number of unpaired electrons: n_u =  2.00000, n_u,nl =  2.00000
      NO participation ratio (PR_NO):  2.000000
    
    NDOs
      Leading detachment eigenvalues:
        -1.0000  -0.0000
      Leading attachment eigenvalues:
         1.0000   0.0000
      Number of detached / attached electrons: p_D =  1.0000, p_A =  1.0000
      Number of involved orbitals: PR_D =  1.000000, PR_A =  1.000000
    
    Mulliken Population Analysis (State/Difference DM)
    Atom      Charge (e)              h+              e-           Del q
    --------------------------------------------------------------------
     1 O        0.295841        0.990957       -0.012110        0.978848
     2 H        0.279485        0.004584       -0.005638       -0.001054
     3 H        0.374638        0.004458       -0.017875       -0.013417
     4 O       -1.380693        0.000000       -0.729045       -0.729044
     5 H        0.324051        0.000000       -0.015457       -0.015456
     6 H        0.334667        0.000000       -0.007751       -0.007751
     7 O       -0.855879        0.000000       -0.193104       -0.193104
     8 H        0.292106       -0.000000       -0.002963       -0.002963
     9 H        0.342477        0.000000       -0.012547       -0.012547
    10 O       -0.653340        0.000000       -0.003408       -0.003408
    11 H        0.308569        0.000000       -0.000062       -0.000062
    12 H        0.338079       -0.000001       -0.000041       -0.000042
    --------------------------------------------------------------------
    Sum:        0.000000        1.000000       -1.000000        0.000000
    
    Multipole moment analysis of the density matrix
      Molecular charge:                      0.000000
      Number of electrons:                   40.000000
        Center of electronic charge [Ang]: [  0.034284,  -0.021007,   0.052284]
      Total nuclear charge:                  40.000000
        Center of nuclear charge [Ang]:    [ -0.006486,  -0.036896,   0.003210]
      Dipole moment [D]:                     12.632257
        Cartesian components [D]:          [ -7.833086,  -3.052754,  -9.428540]
      RMS size of the density [Ang]:         2.395140
        Cartesian components [Ang]:        [  0.760385,   1.674681,   1.534260]
    
    Exciton analysis of the difference density matrix
      <r_h> [Ang]:                  [ -1.109885,  -0.724992,  -1.208656]
      <r_e> [Ang]:                  [  0.404327,  -1.428964,   0.880531]
      |<r_e - r_h>| [Ang]:            2.674531
      Hole size [Ang]:                0.122785
        Cartesian components [Ang]: [  0.070887,   0.070891,   0.070893]
      Electron size [Ang]:            1.406036
        Cartesian components [Ang]: [  0.375126,   1.097742,   0.794470]

  Singlet 10 :
  -------------------------
    NOs
      Occupation of frontier NOs:
         0.0000   1.0000   1.0000   2.0000
      Number of electrons: 40.000000
      Number of unpaired electrons: n_u =  2.00000, n_u,nl =  2.00000
      NO participation ratio (PR_NO):  2.000000
    
    NDOs
      Leading detachment eigenvalues:
        -1.0000  -0.0000
      Leading attachment eigenvalues:
         1.0000   0.0000
      Number of detached / attached electrons: p_D =  1.0000, p_A =  1.0000
      Number of involved orbitals: PR_D =  1.000000, PR_A =  1.000000
    
    Mulliken Population Analysis (State/Difference DM)
    Atom      Charge (e)              h+              e-           Del q
    --------------------------------------------------------------------
     1 O        0.306523        0.990957       -0.001427        0.989531
     2 H        0.284885        0.004584       -0.000238        0.004345
     3 H        0.392214        0.004458       -0.000299        0.004159
     4 O       -0.652221        0.000000       -0.000572       -0.000572
     5 H        0.339385        0.000000       -0.000123       -0.000123
     6 H        0.342202        0.000000       -0.000216       -0.000216
     7 O       -0.664115        0.000000       -0.001340       -0.001340
     8 H        0.294977       -0.000000       -0.000091       -0.000091
     9 H        0.354927        0.000000       -0.000097       -0.000097
    10 O       -1.198172        0.000000       -0.548241       -0.548240
    11 H        0.061125        0.000000       -0.247506       -0.247505
    12 H        0.138269       -0.000001       -0.199851       -0.199852
    --------------------------------------------------------------------
    Sum:       -0.000000        1.000000       -1.000000       -0.000000
    
    Multipole moment analysis of the density matrix
      Molecular charge:                      -0.000000
      Number of electrons:                   40.000000
        Center of electronic charge [Ang]: [  0.028622,   0.069481,  -0.006932]
      Total nuclear charge:                  40.000000
        Center of nuclear charge [Ang]:    [ -0.006486,  -0.036896,   0.003210]
      Dipole moment [D]:                     21.610237
        Cartesian components [D]:          [ -6.745153, -20.437914,   1.948572]
      RMS size of the density [Ang]:         2.409041
        Cartesian components [Ang]:        [  0.761182,   1.686253,   1.542928]
    
    Exciton analysis of the difference density matrix
      <r_h> [Ang]:                  [ -1.109885,  -0.724992,  -1.208656]
      <r_e> [Ang]:                  [  0.177825,   2.190528,  -1.488120]
      |<r_e - r_h>| [Ang]:            3.199462
      Hole size [Ang]:                0.122785
        Cartesian components [Ang]: [  0.070887,   0.070891,   0.070893]
      Electron size [Ang]:            0.798872
        Cartesian components [Ang]: [  0.553896,   0.423991,   0.389396]

  Singlet 11 :
  -------------------------
    NOs
      Occupation of frontier NOs:
         0.0000   1.0000   1.0000   2.0000
      Number of electrons: 40.000000
      Number of unpaired electrons: n_u =  2.00000, n_u,nl =  2.00000
      NO participation ratio (PR_NO):  2.000000
    
    NDOs
      Leading detachment eigenvalues:
        -1.0000  -0.0000
      Leading attachment eigenvalues:
         1.0000   0.0000
      Number of detached / attached electrons: p_D =  1.0000, p_A =  1.0000
      Number of involved orbitals: PR_D =  1.000000, PR_A =  1.000000
    
    Mulliken Population Analysis (State/Difference DM)
    Atom      Charge (e)              h+              e-           Del q
    --------------------------------------------------------------------
     1 O        0.304462        0.990957       -0.003488        0.987469
     2 H        0.284355        0.004584       -0.000768        0.003816
     3 H        0.391228        0.004458       -0.001286        0.003172
     4 O       -0.793746        0.000000       -0.142098       -0.142097
     5 H        0.305710        0.000000       -0.033798       -0.033798
     6 H        0.310186        0.000000       -0.032232       -0.032232
     7 O       -1.371535        0.000000       -0.708760       -0.708760
     8 H        0.259642       -0.000000       -0.035426       -0.035426
     9 H        0.313512        0.000000       -0.041512       -0.041511
    10 O       -0.650378        0.000000       -0.000446       -0.000446
    11 H        0.308478        0.000000       -0.000153       -0.000152
    12 H        0.338086       -0.000001       -0.000034       -0.000035
    --------------------------------------------------------------------
    Sum:        0.000000        1.000000       -1.000000        0.000000
    
    Multipole moment analysis of the density matrix
      Molecular charge:                      0.000000
      Number of electrons:                   40.000000
        Center of electronic charge [Ang]: [  0.035700,   0.012765,   0.075011]
      Total nuclear charge:                  40.000000
        Center of nuclear charge [Ang]:    [ -0.006486,  -0.036896,   0.003210]
      Dipole moment [D]:                     18.628731
        Cartesian components [D]:          [ -8.105055,  -9.541197, -13.795045]
      RMS size of the density [Ang]:         2.396293
        Cartesian components [Ang]:        [  0.761544,   1.659258,   1.552138]
    
    Exciton analysis of the difference density matrix
      <r_h> [Ang]:                  [ -1.109885,  -0.724992,  -1.208656]
      <r_e> [Ang]:                  [  0.460949,  -0.078107,   1.789612]
      |<r_e - r_h>| [Ang]:            3.446099
      Hole size [Ang]:                0.122785
        Cartesian components [Ang]: [  0.070887,   0.070891,   0.070893]
      Electron size [Ang]:            1.365999
        Cartesian components [Ang]: [  0.407694,   1.083032,   0.725796]

  Singlet 12 :
  -------------------------
    NOs
      Occupation of frontier NOs:
         0.0000   1.0000   1.0000   2.0000
      Number of electrons: 40.000000
      Number of unpaired electrons: n_u =  2.00000, n_u,nl =  2.00000
      NO participation ratio (PR_NO):  2.000000
    
    NDOs
      Leading detachment eigenvalues:
        -1.0000  -0.0000
      Leading attachment eigenvalues:
         1.0000   0.0000
      Number of detached / attached electrons: p_D =  1.0000, p_A =  1.0000
      Number of involved orbitals: PR_D =  1.000000, PR_A =  1.000000
    
    Mulliken Population Analysis (State/Difference DM)
    Atom      Charge (e)              h+              e-           Del q
    --------------------------------------------------------------------
     1 O        0.305176        0.990957       -0.002774        0.988183
     2 H        0.284224        0.004584       -0.000899        0.003685
     3 H        0.389702        0.004458       -0.002811        0.001647
     4 O       -1.121854        0.000000       -0.470205       -0.470205
     5 H        0.222056        0.000000       -0.117452       -0.117451
     6 H        0.111859        0.000000       -0.230559       -0.230559
     7 O       -0.818649        0.000000       -0.155873       -0.155873
     8 H        0.284044       -0.000000       -0.011024       -0.011024
     9 H        0.347702        0.000000       -0.007322       -0.007321
    10 O       -0.650715        0.000000       -0.000784       -0.000784
    11 H        0.308478        0.000000       -0.000153       -0.000153
    12 H        0.337976       -0.000001       -0.000144       -0.000145
    --------------------------------------------------------------------
    Sum:        0.000000        1.000000       -1.000000        0.000000
    
    Multipole moment analysis of the density matrix
      Molecular charge:                      0.000000
      Number of electrons:                   40.000000
        Center of electronic charge [Ang]: [  0.037759,  -0.026319,   0.053442]
      Total nuclear charge:                  40.000000
        Center of nuclear charge [Ang]:    [ -0.006486,  -0.036896,   0.003210]
      Dipole moment [D]:                     13.020435
        Cartesian components [D]:          [ -8.500755,  -2.032051,  -9.650890]
      RMS size of the density [Ang]:         2.398866
        Cartesian components [Ang]:        [  0.764864,   1.678838,   1.533311]
    
    Exciton analysis of the difference density matrix
      <r_h> [Ang]:                  [ -1.109885,  -0.724992,  -1.208656]
      <r_e> [Ang]:                  [  0.543331,  -1.641468,   0.926823]
      |<r_e - r_h>| [Ang]:            2.851898
      Hole size [Ang]:                0.122785
        Cartesian components [Ang]: [  0.070887,   0.070891,   0.070893]
      Electron size [Ang]:            1.359581
        Cartesian components [Ang]: [  0.540572,   1.058420,   0.660294]

  Singlet 13 :
  -------------------------
    NOs
      Occupation of frontier NOs:
         0.0000   1.0000   1.0000   2.0000
      Number of electrons: 40.000000
      Number of unpaired electrons: n_u =  2.00000, n_u,nl =  2.00000
      NO participation ratio (PR_NO):  2.000000
    
    NDOs
      Leading detachment eigenvalues:
        -1.0000  -0.0000
      Leading attachment eigenvalues:
         1.0000   0.0000
      Number of detached / attached electrons: p_D =  1.0000, p_A =  1.0000
      Number of involved orbitals: PR_D =  1.000000, PR_A =  1.000000
    
    Mulliken Population Analysis (State/Difference DM)
    Atom      Charge (e)              h+              e-           Del q
    --------------------------------------------------------------------
     1 O        0.304691        0.990957       -0.003260        0.987698
     2 H        0.282308        0.004584       -0.002815        0.001769
     3 H        0.386730        0.004458       -0.005783       -0.001325
     4 O       -0.852891        0.000000       -0.201243       -0.201242
     5 H        0.321107        0.000000       -0.018401       -0.018401
     6 H        0.331591        0.000000       -0.010827       -0.010827
     7 O       -1.396959        0.000000       -0.734184       -0.734184
     8 H        0.280315       -0.000000       -0.014753       -0.014753
     9 H        0.347420        0.000000       -0.007604       -0.007603
    10 O       -0.650671        0.000000       -0.000739       -0.000739
    11 H        0.308369        0.000000       -0.000262       -0.000262
    12 H        0.337991       -0.000001       -0.000129       -0.000130
    --------------------------------------------------------------------
    Sum:        0.000000        1.000000       -1.000000        0.000000
    
    Multipole moment analysis of the density matrix
      Molecular charge:                      0.000000
      Number of electrons:                   40.000000
        Center of electronic charge [Ang]: [  0.035922,   0.012582,   0.074373]
      Total nuclear charge:                  40.000000
        Center of nuclear charge [Ang]:    [ -0.006486,  -0.036896,   0.003210]
      Dipole moment [D]:                     18.538711
        Cartesian components [D]:          [ -8.147813,  -9.505987, -13.672350]
      RMS size of the density [Ang]:         2.396655
        Cartesian components [Ang]:        [  0.761186,   1.659861,   1.552229]
    
    Exciton analysis of the difference density matrix
      <r_h> [Ang]:                  [ -1.109885,  -0.724992,  -1.208656]
      <r_e> [Ang]:                  [  0.469851,  -0.085437,   1.764068]
      |<r_e - r_h>| [Ang]:            3.426614
      Hole size [Ang]:                0.122785
        Cartesian components [Ang]: [  0.070887,   0.070891,   0.070893]
      Electron size [Ang]:            1.418929
        Cartesian components [Ang]: [  0.369818,   1.118743,   0.790574]

  Singlet 14 :
  -------------------------
    NOs
      Occupation of frontier NOs:
         0.0000   1.0000   1.0000   2.0000
      Number of electrons: 40.000000
      Number of unpaired electrons: n_u =  2.00000, n_u,nl =  2.00000
      NO participation ratio (PR_NO):  2.000000
    
    NDOs
      Leading detachment eigenvalues:
        -1.0000  -0.0000
      Leading attachment eigenvalues:
         1.0000   0.0000
      Number of detached / attached electrons: p_D =  1.0000, p_A =  1.0000
      Number of involved orbitals: PR_D =  1.000000, PR_A =  1.000000
    
    Mulliken Population Analysis (State/Difference DM)
    Atom      Charge (e)              h+              e-           Del q
    --------------------------------------------------------------------
     1 O        0.299991        0.990957       -0.007959        0.982998
     2 H        0.284401        0.004584       -0.000722        0.003861
     3 H        0.390384        0.004458       -0.002130        0.002328
     4 O       -1.089157        0.000000       -0.437509       -0.437509
     5 H        0.316039        0.000000       -0.023469       -0.023468
     6 H        0.320388        0.000000       -0.022030       -0.022030
     7 O       -0.956574        0.000000       -0.293799       -0.293798
     8 H        0.149847       -0.000000       -0.145221       -0.145221
     9 H        0.288893        0.000000       -0.066131       -0.066131
    10 O       -0.650744        0.000000       -0.000812       -0.000812
    11 H        0.308468        0.000000       -0.000162       -0.000162
    12 H        0.338065       -0.000001       -0.000056       -0.000056
    --------------------------------------------------------------------
    Sum:       -0.000000        1.000000       -1.000000       -0.000000
    
    Multipole moment analysis of the density matrix
      Molecular charge:                      -0.000000
      Number of electrons:                   40.000000
        Center of electronic charge [Ang]: [  0.033229,  -0.002327,   0.063551]
      Total nuclear charge:                  40.000000
        Center of nuclear charge [Ang]:    [ -0.006486,  -0.036896,   0.003210]
      Dipole moment [D]:                     15.386181
        Cartesian components [D]:          [ -7.630242,  -6.641588, -11.593243]
      RMS size of the density [Ang]:         2.394919
        Cartesian components [Ang]:        [  0.760718,   1.666590,   1.542537]
    
    Exciton analysis of the difference density matrix
      <r_h> [Ang]:                  [ -1.109885,  -0.724992,  -1.208656]
      <r_e> [Ang]:                  [  0.362096,  -0.681789,   1.331210]
      |<r_e - r_h>| [Ang]:            2.935901
      Hole size [Ang]:                0.122785
        Cartesian components [Ang]: [  0.070887,   0.070891,   0.070893]
      Electron size [Ang]:            1.605977
        Cartesian components [Ang]: [  0.436468,   1.297432,   0.839839]

  Singlet 15 :
  -------------------------
    NOs
      Occupation of frontier NOs:
         0.0000   1.0000   1.0000   2.0000
      Number of electrons: 40.000000
      Number of unpaired electrons: n_u =  2.00000, n_u,nl =  2.00000
      NO participation ratio (PR_NO):  2.000000
    
    NDOs
      Leading detachment eigenvalues:
        -1.0000  -0.0000
      Leading attachment eigenvalues:
         1.0000   0.0000
      Number of detached / attached electrons: p_D =  1.0000, p_A =  1.0000
      Number of involved orbitals: PR_D =  1.000000, PR_A =  1.000000
    
    Mulliken Population Analysis (State/Difference DM)
    Atom      Charge (e)              h+              e-           Del q
    --------------------------------------------------------------------
     1 O        0.304844        0.990957       -0.003107        0.987851
     2 H        0.284649        0.004584       -0.000473        0.004110
     3 H        0.390255        0.004458       -0.002258        0.002200
     4 O       -0.697395        0.000000       -0.045747       -0.045747
     5 H        0.335680        0.000000       -0.003828       -0.003827
     6 H        0.337966        0.000000       -0.004452       -0.004452
     7 O       -1.246942        0.000000       -0.584167       -0.584167
     8 H       -0.024826       -0.000000       -0.319894       -0.319894
     9 H        0.319508        0.000000       -0.035516       -0.035516
    10 O       -0.650412        0.000000       -0.000481       -0.000480
    11 H        0.308566        0.000000       -0.000064       -0.000064
    12 H        0.338107       -0.000001       -0.000013       -0.000014
    --------------------------------------------------------------------
    Sum:       -0.000000        1.000000       -1.000000       -0.000000
    
[...]
 172  H 2   d 4     -0.00162
 173  H 2   d 5     -0.00080
 174  H 2   d 1     -0.00768
 175  H 2   d 2     -0.00336
 176  H 2   d 3      0.00919
 177  H 2   d 4     -0.01391
 178  H 2   d 5     -0.01973
 179  H 2   f 1     -0.00007
 180  H 2   f 2      0.00015
 181  H 2   f 3      0.00017
 182  H 2   f 4      0.00001
 183  H 2   f 5      0.00014
 184  H 2   f 6     -0.00004
 185  H 2   f 7     -0.00002
 186  H 2   f 1      0.00154
 187  H 2   f 2      0.00221
 188  H 2   f 3      0.00164
 189  H 2   f 4     -0.00237
 190  H 2   f 5     -0.00092
 191  H 2   f 6      0.00339
 192  H 2   f 7      0.00213
 193  H 2   g 1     -0.00007
 194  H 2   g 2     -0.00012
 195  H 2   g 3     -0.00017
 196  H 2   g 4     -0.00008
 197  H 2   g 5      0.00011
 198  H 2   g 6      0.00016
 199  H 2   g 7     -0.00016
 200  H 2   g 8     -0.00021
 201  H 2   g 9     -0.00007
 202  O 2   s       -0.00022
 203  O 2   s        0.00516
 204  O 2   s        0.00121
 205  O 2   s        0.00247
 206  O 2   s       -0.12535
 207  O 2   s        0.33904
 208  O 2   px      -0.01923
 209  O 2   py      -0.01718
 210  O 2   pz      -0.00316
 211  O 2   px      -0.02919
 212  O 2   py      -0.02554
 213  O 2   pz      -0.00491
 214  O 2   px      -0.07945
 215  O 2   py      -0.04047
 216  O 2   pz      -0.01734
 217  O 2   px      -0.18751
 218  O 2   py      -0.11253
 219  O 2   pz       0.00317
 220  O 2   px      -0.65834
 221  O 2   py      -0.05198
 222  O 2   pz      -0.07346
 223  O 2   d 1     -0.00028
 224  O 2   d 2      0.00000
 225  O 2   d 3     -0.00013
 226  O 2   d 4      0.00009
 227  O 2   d 5      0.00016
 228  O 2   d 1     -0.00145
 229  O 2   d 2      0.00068
 230  O 2   d 3      0.00111
 231  O 2   d 4      0.00053
 232  O 2   d 5     -0.00099
 233  O 2   d 1      0.01070
 234  O 2   d 2      0.00031
 235  O 2   d 3     -0.00080
 236  O 2   d 4     -0.00665
 237  O 2   d 5     -0.00421
 238  O 2   d 1      0.04046
 239  O 2   d 2     -0.00573
 240  O 2   d 3     -0.03002
 241  O 2   d 4     -0.00762
 242  O 2   d 5     -0.02632
 243  O 2   f 1     -0.00015
 244  O 2   f 2     -0.00007
 245  O 2   f 3      0.00013
 246  O 2   f 4     -0.00004
 247  O 2   f 5      0.00002
 248  O 2   f 6     -0.00018
 249  O 2   f 7     -0.00010
 250  O 2   f 1      0.00129
 251  O 2   f 2      0.00076
 252  O 2   f 3     -0.00060
 253  O 2   f 4      0.00065
 254  O 2   f 5      0.00061
 255  O 2   f 6      0.00033
 256  O 2   f 7      0.00011
 257  O 2   f 1     -0.01002
 258  O 2   f 2      0.00519
 259  O 2   f 3      0.01043
 260  O 2   f 4     -0.00600
 261  O 2   f 5      0.00073
 262  O 2   f 6     -0.00444
 263  O 2   f 7      0.01354
 264  O 2   g 1      0.00026
 265  O 2   g 2      0.00015
 266  O 2   g 3      0.00001
 267  O 2   g 4     -0.00009
 268  O 2   g 5     -0.00001
 269  O 2   g 6      0.00009
 270  O 2   g 7      0.00010
 271  O 2   g 8     -0.00007
 272  O 2   g 9      0.00000
 273  O 2   g 1     -0.00199
 274  O 2   g 2     -0.00096
 275  O 2   g 3     -0.00057
 276  O 2   g 4      0.00087
 277  O 2   g 5      0.00078
 278  O 2   g 6      0.00010
 279  O 2   g 7     -0.00049
 280  O 2   g 8      0.00087
 281  O 2   g 9     -0.00130
 282  O 2   h 1      0.00009
 283  O 2   h 2     -0.00011
 284  O 2   h 3      0.00015
 285  O 2   h 4     -0.00008
 286  O 2   h 5     -0.00014
 287  O 2   h 6      0.00017
 288  O 2   h 7      0.00006
 289  O 2   h 8     -0.00002
 290  O 2   h 9     -0.00015
 291  O 2   h10     -0.00005
 292  O 2   h11      0.00003
 293  H 3   s       -0.00625
 294  H 3   s       -0.01083
 295  H 3   s       -0.18033
 296  H 3   s       -0.54705
 297  H 3   s       -0.77514
 298  H 3   px       0.00081
 299  H 3   py       0.00109
 300  H 3   pz      -0.00039
 301  H 3   px       0.00071
 302  H 3   py      -0.00108
 303  H 3   pz       0.00046
 304  H 3   px      -0.03304
 305  H 3   py      -0.00443
 306  H 3   pz      -0.00475
 307  H 3   px      -0.08735
 308  H 3   py      -0.08013
 309  H 3   pz       0.01052
 310  H 3   d 1      0.00009
 311  H 3   d 2     -0.00001
 312  H 3   d 3     -0.00001
 313  H 3   d 4      0.00004
 314  H 3   d 5      0.00035
 315  H 3   d 1     -0.00363
 316  H 3   d 2     -0.00012
 317  H 3   d 3      0.00197
 318  H 3   d 4     -0.00017
 319  H 3   d 5     -0.00339
 320  H 3   d 1     -0.00435
 321  H 3   d 2     -0.00251
 322  H 3   d 3      0.00629
 323  H 3   d 4     -0.00224
 324  H 3   d 5     -0.01201
 325  H 3   f 1     -0.00052
 326  H 3   f 2     -0.00003
 327  H 3   f 3      0.00023
 328  H 3   f 4     -0.00017
 329  H 3   f 5      0.00032
 330  H 3   f 6     -0.00006
 331  H 3   f 7      0.00017
 332  H 3   f 1     -0.00114
 333  H 3   f 2     -0.00078
 334  H 3   f 3     -0.00044
 335  H 3   f 4      0.00136
 336  H 3   f 5      0.00069
 337  H 3   f 6      0.00048
 338  H 3   f 7     -0.00242
 339  H 3   g 1     -0.00023
 340  H 3   g 2     -0.00005
 341  H 3   g 3      0.00008
 342  H 3   g 4      0.00006
 343  H 3   g 5     -0.00008
 344  H 3   g 6      0.00002
 345  H 3   g 7      0.00008
 346  H 3   g 8      0.00008
 347  H 3   g 9     -0.00001
 348  H 4   s        0.00317
 349  H 4   s       -0.00413
 350  H 4   s        0.03856
 351  H 4   s        0.57561
 352  H 4   s        0.50575
 353  H 4   px      -0.00025
 354  H 4   py      -0.00014
 355  H 4   pz      -0.00009
 356  H 4   px       0.00588
 357  H 4   py      -0.00318
 358  H 4   pz       0.00210
 359  H 4   px      -0.03351
 360  H 4   py       0.00780
 361  H 4   pz      -0.00398
 362  H 4   px      -0.12080
 363  H 4   py       0.09176
 364  H 4   pz      -0.04800
 365  H 4   d 1      0.00039
 366  H 4   d 2      0.00009
 367  H 4   d 3      0.00047
 368  H 4   d 4     -0.00001
 369  H 4   d 5     -0.00050
 370  H 4   d 1     -0.00126
 371  H 4   d 2      0.00037
 372  H 4   d 3     -0.00266
 373  H 4   d 4     -0.00007
 374  H 4   d 5      0.00369
 375  H 4   d 1     -0.03136
 376  H 4   d 2     -0.00730
 377  H 4   d 3     -0.01483
 378  H 4   d 4      0.01832
 379  H 4   d 5      0.02129
 380  H 4   f 1     -0.00036
 381  H 4   f 2     -0.00024
 382  H 4   f 3      0.00002
 383  H 4   f 4     -0.00011
 384  H 4   f 5     -0.00001
 385  H 4   f 6      0.00009
 386  H 4   f 7     -0.00007
 387  H 4   f 1      0.00715
 388  H 4   f 2      0.00305
 389  H 4   f 3     -0.00187
 390  H 4   f 4      0.00312
 391  H 4   f 5      0.00328
 392  H 4   f 6     -0.00280
 393  H 4   f 7     -0.00203
 394  H 4   g 1     -0.00037
 395  H 4   g 2     -0.00020
 396  H 4   g 3      0.00018
 397  H 4   g 4      0.00015
 398  H 4   g 5      0.00008
 399  H 4   g 6     -0.00029
 400  H 4   g 7     -0.00008
 401  H 4   g 8      0.00011
 402  H 4   g 9      0.00000
 403  O 3   s        0.00215
 404  O 3   s       -0.03997
 405  O 3   s        0.00047
 406  O 3   s       -0.02430
 407  O 3   s       -0.18282
 408  O 3   s       -0.69762
 409  O 3   px       0.02746
 410  O 3   py      -0.00183
 411  O 3   pz      -0.00339
 412  O 3   px       0.04114
 413  O 3   py      -0.00220
 414  O 3   pz      -0.00901
 415  O 3   px       0.09215
 416  O 3   py      -0.01485
 417  O 3   pz       0.00215
 418  O 3   px       0.18027
 419  O 3   py       0.11734
 420  O 3   pz       0.11934
 421  O 3   px       0.09721
 422  O 3   py      -0.15672
 423  O 3   pz      -0.01335
 424  O 3   d 1     -0.00008
 425  O 3   d 2     -0.00044
 426  O 3   d 3      0.00017
 427  O 3   d 4     -0.00032
 428  O 3   d 5      0.00012
 429  O 3   d 1     -0.00096
 430  O 3   d 2      0.00287
 431  O 3   d 3     -0.00167
 432  O 3   d 4      0.00207
 433  O 3   d 5     -0.00089
 434  O 3   d 1      0.00881
 435  O 3   d 2     -0.01149
 436  O 3   d 3      0.01264
 437  O 3   d 4     -0.01497
 438  O 3   d 5     -0.00338
 439  O 3   d 1      0.02403
 440  O 3   d 2     -0.01659
 441  O 3   d 3      0.01448
 442  O 3   d 4     -0.01795
 443  O 3   d 5     -0.00428
 444  O 3   f 1      0.00036
 445  O 3   f 2      0.00008
 446  O 3   f 3      0.00010
 447  O 3   f 4      0.00031
 448  O 3   f 5      0.00009
 449  O 3   f 6      0.00018
 450  O 3   f 7     -0.00018
 451  O 3   f 1     -0.00338
 452  O 3   f 2     -0.00063
 453  O 3   f 3     -0.00008
 454  O 3   f 4     -0.00228
 455  O 3   f 5     -0.00129
 456  O 3   f 6     -0.00057
 457  O 3   f 7      0.00098
 458  O 3   f 1     -0.02079
 459  O 3   f 2     -0.00887
 460  O 3   f 3      0.00246
 461  O 3   f 4     -0.01545
 462  O 3   f 5     -0.00583
 463  O 3   f 6     -0.00490
 464  O 3   f 7      0.00987
 465  O 3   g 1      0.00010
 466  O 3   g 2     -0.00006
 467  O 3   g 3     -0.00020
 468  O 3   g 4     -0.00012
 469  O 3   g 5     -0.00009
 470  O 3   g 6      0.00003
 471  O 3   g 7     -0.00002
 472  O 3   g 8      0.00011
 473  O 3   g 9      0.00026
 474  O 3   g 1      0.00305
 475  O 3   g 2      0.00416
 476  O 3   g 3      0.00056
 477  O 3   g 4      0.00113
 478  O 3   g 5      0.00081
 479  O 3   g 6      0.00196
 480  O 3   g 7      0.00186
 481  O 3   g 8     -0.00074
 482  O 3   g 9     -0.00299
 483  O 3   h 1     -0.00033
 484  O 3   h 2     -0.00042
 485  O 3   h 3     -0.00016
 486  O 3   h 4      0.00012
 487  O 3   h 5     -0.00020
 488  O 3   h 6      0.00027
 489  O 3   h 7     -0.00000
 490  O 3   h 8     -0.00008
 491  O 3   h 9     -0.00015
 492  O 3   h10      0.00030
 493  O 3   h11      0.00006
 494  H 5   s        0.00462
 495  H 5   s       -0.00209
 496  H 5   s        0.26139
 497  H 5   s       -0.00428
 498  H 5   s        1.02752
 499  H 5   px      -0.00250
 500  H 5   py       0.00126
 501  H 5   pz      -0.00055
 502  H 5   px       0.00505
 503  H 5   py      -0.00081
 504  H 5   pz       0.00137
 505  H 5   px       0.02549
 506  H 5   py      -0.04031
 507  H 5   pz      -0.00352
 508  H 5   px       0.03277
 509  H 5   py      -0.03970
 510  H 5   pz      -0.00783
 511  H 5   d 1      0.00076
 512  H 5   d 2      0.00040
 513  H 5   d 3      0.00033
 514  H 5   d 4     -0.00011
 515  H 5   d 5      0.00017
 516  H 5   d 1     -0.01125
 517  H 5   d 2     -0.00280
 518  H 5   d 3     -0.00593
 519  H 5   d 4      0.00115
 520  H 5   d 5      0.00077
 521  H 5   d 1     -0.01408
 522  H 5   d 2      0.00534
 523  H 5   d 3     -0.00784
 524  H 5   d 4     -0.01247
 525  H 5   d 5     -0.00970
 526  H 5   f 1     -0.00086
 527  H 5   f 2     -0.00025
 528  H 5   f 3      0.00041
 529  H 5   f 4     -0.00034
 530  H 5   f 5     -0.00052
 531  H 5   f 6      0.00027
 532  H 5   f 7     -0.00044
 533  H 5   f 1     -0.00216
 534  H 5   f 2      0.00001
 535  H 5   f 3      0.00181
 536  H 5   f 4      0.00176
 537  H 5   f 5     -0.00194
 538  H 5   f 6     -0.00351
 539  H 5   f 7     -0.00397
 540  H 5   g 1     -0.00004
 541  H 5   g 2      0.00008
 542  H 5   g 3      0.00031
 543  H 5   g 4      0.00007
 544  H 5   g 5      0.00021
 545  H 5   g 6      0.00006
 546  H 5   g 7     -0.00004
 547  H 5   g 8     -0.00023
 548  H 5   g 9     -0.00051
 549  H 6   s        0.00284
 550  H 6   s       -0.00062
 551  H 6   s        0.20779
 552  H 6   s        0.00152
 553  H 6   s       -0.02906
 554  H 6   px      -0.00024
 555  H 6   py      -0.00133
 556  H 6   pz      -0.00050
 557  H 6   px       0.00088
 558  H 6   py       0.00457
 559  H 6   pz       0.00109
 560  H 6   px       0.01678
 561  H 6   py       0.02389
 562  H 6   pz       0.02835
 563  H 6   px       0.04677
 564  H 6   py       0.09084
 565  H 6   pz       0.05496
 566  H 6   d 1     -0.00013
 567  H 6   d 2     -0.00080
 568  H 6   d 3     -0.00017
 569  H 6   d 4     -0.00001
 570  H 6   d 5      0.00038
 571  H 6   d 1      0.00385
 572  H 6   d 2      0.00967
 573  H 6   d 3      0.00063
 574  H 6   d 4      0.00273
 575  H 6   d 5     -0.00505
 576  H 6   d 1      0.01146
 577  H 6   d 2     -0.00917
 578  H 6   d 3      0.00109
 579  H 6   d 4      0.01141
 580  H 6   d 5      0.01530
 581  H 6   f 1     -0.00035
 582  H 6   f 2      0.00040
 583  H 6   f 3      0.00027
 584  H 6   f 4     -0.00026
 585  H 6   f 5      0.00015
 586  H 6   f 6     -0.00064
 587  H 6   f 7     -0.00030
 588  H 6   f 1      0.00257
 589  H 6   f 2      0.00235
 590  H 6   f 3      0.00169
 591  H 6   f 4     -0.00008
 592  H 6   f 5      0.00031
 593  H 6   f 6      0.00086
 594  H 6   f 7     -0.00197
 595  H 6   g 1     -0.00016
 596  H 6   g 2      0.00008
 597  H 6   g 3      0.00010
 598  H 6   g 4      0.00011
 599  H 6   g 5     -0.00009
 600  H 6   g 6     -0.00000
 601  H 6   g 7     -0.00016
 602  H 6   g 8     -0.00029
 603  H 6   g 9     -0.00017
 604  O 4   s       -0.00228
 605  O 4   s        0.06705
 606  O 4   s        0.00287
 607  O 4   s        0.03346
 608  O 4   s        0.26886
 609  O 4   s        1.28370
 610  O 4   px       0.01553
 611  O 4   py      -0.02025
 612  O 4   pz       0.00923
 613  O 4   px       0.02294
 614  O 4   py      -0.02617
 615  O 4   pz       0.00896
 616  O 4   px       0.05921
 617  O 4   py      -0.06876
 618  O 4   pz       0.04337
 619  O 4   px       0.09279
 620  O 4   py      -0.32282
 621  O 4   pz       0.18230
 622  O 4   px       0.21345
 623  O 4   py      -0.15604
 624  O 4   pz       0.17322
 625  O 4   d 1      0.00016
 626  O 4   d 2     -0.00035
 627  O 4   d 3     -0.00037
 628  O 4   d 4      0.00028
 629  O 4   d 5      0.00004
 630  O 4   d 1     -0.00020
 631  O 4   d 2      0.00236
 632  O 4   d 3      0.00308
 633  O 4   d 4     -0.00345
 634  O 4   d 5     -0.00254
 635  O 4   d 1     -0.00932
 636  O 4   d 2     -0.02027
 637  O 4   d 3     -0.01295
 638  O 4   d 4      0.02327
 639  O 4   d 5      0.00783
 640  O 4   d 1     -0.03178
 641  O 4   d 2     -0.07474
 642  O 4   d 3     -0.03621
 643  O 4   d 4      0.07794
 644  O 4   d 5      0.02735
 645  O 4   f 1      0.00028
 646  O 4   f 2      0.00032
 647  O 4   f 3     -0.00001
 648  O 4   f 4      0.00000
 649  O 4   f 5     -0.00012
 650  O 4   f 6     -0.00008
 651  O 4   f 7      0.00024
 652  O 4   f 1     -0.00208
 653  O 4   f 2     -0.00283
 654  O 4   f 3     -0.00010
 655  O 4   f 4     -0.00093
 656  O 4   f 5      0.00068
 657  O 4   f 6      0.00069
 658  O 4   f 7     -0.00119
 659  O 4   f 1     -0.03232
 660  O 4   f 2     -0.03039
 661  O 4   f 3      0.00068
 662  O 4   f 4     -0.01643
 663  O 4   f 5      0.01945
 664  O 4   f 6     -0.00116
 665  O 4   f 7     -0.01053
 666  O 4   g 1     -0.00024
 667  O 4   g 2     -0.00013
 668  O 4   g 3      0.00018
 669  O 4   g 4     -0.00003
 670  O 4   g 5     -0.00002
 671  O 4   g 6      0.00002
 672  O 4   g 7      0.00015
 673  O 4   g 8      0.00011
 674  O 4   g 9      0.00007
 675  O 4   g 1      0.00208
 676  O 4   g 2     -0.00232
 677  O 4   g 3     -0.00420
 678  O 4   g 4      0.00139
 679  O 4   g 5     -0.00074
 680  O 4   g 6     -0.00178
 681  O 4   g 7     -0.00103
 682  O 4   g 8     -0.00278
 683  O 4   g 9     -0.00370
 684  O 4   h 1     -0.00000
 685  O 4   h 2     -0.00013
 686  O 4   h 3     -0.00007
 687  O 4   h 4      0.00019
 688  O 4   h 5      0.00019
 689  O 4   h 6     -0.00003
 690  O 4   h 7     -0.00047
 691  O 4   h 8      0.00005
 692  O 4   h 9     -0.00024
 693  O 4   h10     -0.00046
 694  O 4   h11      0.00003
 695  H 7   s       -0.00835
 696  H 7   s        0.00290
 697  H 7   s       -0.49341
 698  H 7   s       -0.35280
 699  H 7   s       -1.13619
 700  H 7   px      -0.00211
 701  H 7   py       0.00189
 702  H 7   pz      -0.00170
 703  H 7   px       0.00039
 704  H 7   py      -0.00447
 705  H 7   pz       0.00291
 706  H 7   px       0.08970
 707  H 7   py      -0.03709
 708  H 7   pz       0.04669
 709  H 7   px       0.12387
 710  H 7   py      -0.08861
 711  H 7   pz       0.08334
 712  H 7   d 1     -0.00049
 713  H 7   d 2     -0.00013
 714  H 7   d 3     -0.00010
 715  H 7   d 4      0.00079
 716  H 7   d 5      0.00046
 717  H 7   d 1      0.01064
 718  H 7   d 2      0.00588
 719  H 7   d 3      0.00279
 720  H 7   d 4     -0.01243
 721  H 7   d 5     -0.00666
 722  H 7   d 1      0.00921
 723  H 7   d 2     -0.00040
 724  H 7   d 3      0.00978
 725  H 7   d 4     -0.01067
 726  H 7   d 5     -0.01934
 727  H 7   f 1     -0.00102
 728  H 7   f 2     -0.00151
 729  H 7   f 3     -0.00017
 730  H 7   f 4     -0.00112
 731  H 7   f 5      0.00016
 732  H 7   f 6      0.00070
 733  H 7   f 7     -0.00005
 734  H 7   f 1     -0.00220
 735  H 7   f 2      0.00080
 736  H 7   f 3      0.00095
 737  H 7   f 4      0.00012
 738  H 7   f 5     -0.00107
 739  H 7   f 6      0.00258
 740  H 7   f 7      0.00210
 741  H 7   g 1      0.00031
 742  H 7   g 2      0.00034
 743  H 7   g 3     -0.00000
 744  H 7   g 4     -0.00010
 745  H 7   g 5      0.00007
 746  H 7   g 6      0.00028
 747  H 7   g 7     -0.00006
 748  H 7   g 8     -0.00016
 749  H 7   g 9     -0.00002
 750  H 8   s       -0.00561
 751  H 8   s       -0.01078
 752  H 8   s       -0.23344
 753  H 8   s       -0.13651
 754  H 8   s       -0.05108
 755  H 8   px       0.00091
 756  H 8   py       0.00063
 757  H 8   pz      -0.00005
 758  H 8   px      -0.00085
 759  H 8   py      -0.00291
 760  H 8   pz       0.00109
 761  H 8   px      -0.04044
 762  H 8   py      -0.03443
 763  H 8   pz       0.00795
 764  H 8   px      -0.03666
 765  H 8   py      -0.02300
 766  H 8   pz       0.00638
 767  H 8   d 1      0.00009
 768  H 8   d 2      0.00006
 769  H 8   d 3      0.00021
 770  H 8   d 4     -0.00035
 771  H 8   d 5     -0.00010
 772  H 8   d 1     -0.00666
 773  H 8   d 2      0.00050
 774  H 8   d 3      0.00254
 775  H 8   d 4      0.00289
 776  H 8   d 5     -0.00033
 777  H 8   d 1      0.00547
 778  H 8   d 2      0.00819
 779  H 8   d 3      0.00144
 780  H 8   d 4     -0.00255
 781  H 8   d 5      0.00362
 782  H 8   f 1     -0.00114
 783  H 8   f 2      0.00005
 784  H 8   f 3      0.00050
 785  H 8   f 4     -0.00012
 786  H 8   f 5      0.00070
 787  H 8   f 6      0.00018
 788  H 8   f 7      0.00027
 789  H 8   f 1      0.00435
 790  H 8   f 2      0.00195
 791  H 8   f 3     -0.00132
 792  H 8   f 4     -0.00031
 793  H 8   f 5     -0.00272
 794  H 8   f 6     -0.00038
 795  H 8   f 7      0.00068
 796  H 8   g 1      0.00015
 797  H 8   g 2      0.00019
 798  H 8   g 3     -0.00004
 799  H 8   g 4     -0.00002
 800  H 8   g 5      0.00002
 801  H 8   g 6     -0.00005
 802  H 8   g 7     -0.00010
 803  H 8   g 8     -0.00007
 804  H 8   g 9      0.00004

 -----------------------------------------------------------------
                    Cartesian Multipole Moments
 -----------------------------------------------------------------
    Charge (ESU x 10^10)
                -0.0000
    Dipole Moment (Debye)
         X      -0.5600      Y      -6.4341      Z       0.6063
       Tot       6.4868
    Quadrupole Moments (Debye-Ang)
        XX     -24.3030     XY      -2.5054     YY     -22.3643
        XZ      -0.8534     YZ       2.2608     ZZ     -35.1655
    Octopole Moments (Debye-Ang^2)
       XXX       6.8788    XXY      -5.7482    XYY      -2.2952
       YYY     -59.3176    XXZ      -2.2013    XYZ      -6.7356
       YYZ      21.5769    XZZ     -13.0951    YZZ     -19.0285
       ZZZ     -13.8180
    Hexadecapole Moments (Debye-Ang^3)
      XXXX     -93.7278   XXXY     -18.6614   XXYY     -61.9542
      XYYY     -18.8536   YYYY    -440.3912   XXXZ     -43.4504
      XXYZ      12.2512   XYYZ       1.7506   YYYZ      85.8214
      XXZZ     -73.3768   XYZZ     -11.9247   YYZZ    -147.4642
      XZZZ     -48.9771   YZZZ      86.9864   ZZZZ    -453.4996
 -----------------------------------------------------------------
 Total job time:  5708.73s(wall), 43099.15s(cpu) 
 Thu Dec 19 16:49:17 2024

        *************************************************************
        *                                                           *
        *  Thank you very much for using Q-Chem.  Have a nice day.  *
        *                                                           *
        *************************************************************


