                  Welcome to Q-Chem
     A Quantum Leap Into The Future Of Chemistry


 Q-Chem 6.2 (devel), Q-Chem, Inc., Pleasanton, CA (2024)

 E. Epifanovsky,  A. T. B. Gilbert,  Xintian Feng,  Joonho Lee,  Yuezhi Mao,  
 N. Mardirossian,  P. Pokhilko,  A. White,  M. Wormit,  M. P. Coons,  
 A. L. Dempwolff,  Zhengting Gan,  D. Hait,  P. R. Horn,  L. D. Jacobson,  
 I. Kaliman,  J. Kussmann,  A. W. Lange,  Ka Un Lao,  D. S. Levine,  Jie Liu,  
 S. C. McKenzie,  A. F. Morrison,  K. D. Nanda,  F. Plasser,  D. R. Rehn,  
 M. L. Vidal,  Zhi-Qiang You,  Ying Zhu,  Huseyin Aksu,  B. Alam,  
 B. Albrecht,  A. Aldossary,  E. Alguire,  J. H. Andersen,  
 J. E. Arias-Martinez,  V. Athavale,  D. Barton,  K. Begam,  A. Behn,  
 N. Bellonzi,  Y. A. Bernard,  E. J. Berquist,  H. Burton,  A. Carreras,  
 K. Carter-Fenk,  Mathew Chow,  Romit Chakraborty,  Chandrima Chakravarty,  
 Junhan Chen,  A. D. Chien,  K. D. Closser,  V. Cofer-Shabica,  L. Cunha,  
 S. Dasgupta,  Jia Deng,  Joseph Dickinson,  M. de Wergifosse,  
 M. Diedenhofen,  Hainam Do,  Wenjie Dou,  S. Ehlert,  Po-Tung Fang,  
 S. Fatehi,  Qingguo Feng,  Jonathan Fetherolf,  T. Friedhoff,  
 Thomas Froitzheim,  Sarai Folkestad,  B. Ganoe,  J. Gayvert,  Qinghui Ge,  
 G. Gidofalvi,  M. Gimferrer,  M. Goldey,  Montgomery Gray,  J. Gomes,  
 C. Gonzalez-Espinoza,  S. Gulania,  A. Gunina,  J. A. Gyamfi,  
 M. W. D. Hanson-Heine,  P. H. P. Harbach,  A. W. Hauser,  M. F. Herbst,  
 M. Hernandez Vera,  M. Hodecker,  Z. C. Holden,  S. Houck,  Xunkun Huang,  
 Kerwin Hui,  B. C. Huynh,  K. Ikeda,  M. Ivanov,  Nayanthara K. Jayadev,  
 Hyunjun Ji,  Zuxin Jin,  Hanjie Jiang,  Subrata Jana,  B. Kaduk,  
 S. Kaehler,  R. Kang,  K. Khistyaev,  Jaehoon Kim,  Yongbin Kim,  
 P. Klunzinger,  Z. Koczor-Benda,  Joong Hoon Koh,  D. Kosenkov,  
 Saikiran Kotaru,  L. Koulias,  T. Kowalczyk,  C. M. Krauter,  K. Kue,  
 A. Kunitsa,  T. Kus,  A. Landau,  K. V. Lawler,  D. Lefrancois,  S. Lehtola,  
 Rain Li,  Shaozhi Li,  Tao E. Li,  Yi-Pei Li,  Jiashu Liang,  M. Liebenthal,  
 Hung-Hsuan Lin,  You-Sheng Lin,  Fenglai Liu,  Kuan-Yu Liu,  Xiao Liu,  
 M. Loipersberger,  A. Luenser,  C. Malbon,  Aniket Mandal,  Manisha,  
 A. Manjanath,  P. Manohar,  E. Mansoor,  S. F. Manzer,  Shan-Ping Mao,  
 A. V. Marenich,  T. Markovich,  S. Mason,  F. Matz,  S. A. Maurer,  
 Samuel May,  Alexandra McIsaac,  P. F. McLaughlin,  M. F. S. J. Menger,  
 J.-M. Mewes,  S. A. Mewes,  P. Morgante,  Mohammad Mostafanejad,  
 Madhubani Mukherjee,  J. W. Mullinax,  Quyen Nguyen,  Avik Kumar Ojha,  
 K. J. Oosterbaan,  Eno Paenurk,  Xiaoliang Pan,  G. Paran,  V. Parravicini,  
 Alexander C. Paul,  Suranjan K. Paul,  F. Pavosevic,  Zheng Pei,  S. Prager,  
 E. I. Proynov,  E. Ramos,  B. Rana,  A. E. Rask,  A. Rettig,  R. M. Richard,  
 F. Rob,  E. Rossomme,  T. Scheele,  M. Scheurer,  M. Schneider,  
 P. E. Schneider,  Tim K. Schramm,  N. Sergueev,  S. M. Sharada,  
 Hengyuan Shen,  W. Skomorowski,  D. W. Small,  C. J. Stein,  
 Alistair J. Sterling,  Yingli Su,  Yu-Chuan Su,  E. J. Sundstrom,  
 J. Talbot,  Zhen Tao,  J. Thirman,  Hung-Yi Tsai,  T. Tsuchimochi,  
 N. M. Tubman,  C. Utku,  S. P. Veccham,  O. Vydrov,  Rahel Weiss,  
 J. Wenzel,  Jonathan Wong,  J. Witte,  H. Wu,  Yanze Wu,  A. Yamada,  
 Chou-Hsun Yang,  Kun Yao,  S. Yeganeh,  S. R. Yost,  Qi Yu,  A. Zech,  
 F. Zeller,  Chongxiao Zhao,  Igor Ying Zhang,  Xing Zhang,  Yu Zhang,  
 D. Zuev,  A. Aspuru-Guzik,  A. T. Bell,  N. A. Besley,  K. B. Bravaya,  
 B. R. Brooks,  D. Casanova,  Jeng-Da Chai,  Hsing-Ta Chen,  S. Coriani,  
 C. J. Cramer,  A. E. DePrince, III,  R. A. DiStasio Jr.,  A. Dreuw,  
 B. D. Dunietz,  T. R. Furlani,  W. A. Goddard III,  S. Grimme,  
 S. Hammes-Schiffer,  T. Head-Gordon,  W. J. Hehre,  Chao-Ping Hsu,  
 T.-C. Jagau,  Yousung Jung,  A. Klamt,  Jing Kong,  D. S. Lambrecht,  
 Xiangyuan Li,  WanZhen Liang,  N. J. Mayhall,  C. W. McCurdy,  J. B. Neaton,  
 T. Neudecker,  C. Ochsenfeld,  J. A. Parkhill,  R. Peverati,  
 V. A. Rassolov,  Haisheng Ren,  Yihan Shao,  L. V. Slipchenko,  
 R. P. Steele,  J. E. Subotnik,  A. J. W. Thom,  A. Tkatchenko,  
 D. G. Truhlar,  T. Van Voorhis,  Fan Wang,  T. A. Wesolowski,  K. B. Whaley,  
 H. L. Woodcock III,  P. M. Zimmerman,  S. Faraji,  P. M. W. Gill,  
 M. Head-Gordon,  J. M. Herbert,  A. I. Krylov

 Contributors to earlier versions of Q-Chem not listed above: 
 R. D. Adamson,  B. Austin,  R. Baer,  J. Baker,  G. J. O. Beran,  
 K. Brandhorst,  S. T. Brown,  E. F. C. Byrd,  Arup K. Chakraborty,  
 G. K. L. Chan,  Chun-Min Chang,  Yunqing Chen,  C.-L. Cheng,  
 Siu Hung Chien,  D. M. Chipman,  D. L. Crittenden,  H. Dachsel,  
 R. J. Doerksen,  A. D. Dutoi,  R. G. Edgar,  J. Fosso-Tande,  
 L. Fusti-Molnar,  D. Ghosh,  A. Ghysels,  A. Golubeva-Zadorozhnaya,  
 J. Gonthier,  M. S. Gordon,  S. R. Gwaltney,  G. Hawkins,  J. E. Herr,  
 A. Heyden,  S. Hirata,  E. G. Hohenstein,  G. Kedziora,  F. J. Keil,  
 C. Kelley,  Jihan Kim,  R. A. King,  R. Z. Khaliullin,  P. P. Korambath,  
 W. Kurlancheek,  A. Laurent,  A. M. Lee,  M. S. Lee,  S. V. Levchenko,  
 Ching Yeh Lin,  D. Liotard,  E. Livshits,  R. C. Lochan,  I. Lotan,  
 L. A. Martinez-Martinez,  P. E. Maslen,  N. Nair,  D. P. O'Neill,  
 D. Neuhauser,  E. Neuscamman,  C. M. Oana,  R. Olivares-Amaya,  R. Olson,  
 T. M. Perrine,  B. Peters,  P. A. Pieniazek,  A. Prociuk,  Y. M. Rhee,  
 J. Ritchie,  M. A. Rohrdanz,  E. Rosta,  N. J. Russ,  H. F. Schaefer III,  
 M. W. Schmidt,  N. E. Schultz,  S. Sharma,  N. Shenvi,  C. D. Sherrill,  
 A. C. Simmonett,  A. Sodt,  T. Stein,  D. Stuck,  K. S. Thanthiriwatte,  
 V. Vanovschi,  L. Vogt,  Tao Wang,  A. Warshel,  M. A. Watson,  
 C. F. Williams,  Q. Wu,  X. Xu,  Jun Yang,  W. Zhang,  Yan Zhao

   Please cite Q-Chem as follows:
  "Software for the frontiers of quantum chemistry:
   An overview of developments in the Q-Chem 5 package"
   J. Chem. Phys. 155, 084801 (2021)
   https://doi.org/10.1063/5.0055522 (open access)

 Q-Chem 6.2.2 for Intel X86 EM64T Linux

 Parts of Q-Chem use Armadillo 9.900.5 (Nocturnal Misbehaviour).
 http://arma.sourceforge.net/

 Q-Chem begins on Mon Dec 30 14:37:16 2024  

 Host: compute-0-13.local
0

     Scratch files written to /scratch/keith/A0D1_1//
 Processing $rem in /home/keith/software/qchem/qchem_622/config/preferences:
 Processing $rem in /home/keith/.qchemrc:

 Checking the input file for inconsistencies... 	...done.

--------------------------------------------------------------
User input:
--------------------------------------------------------------
$molecule
read
$end

$rem
method                    b3lyp 
basis                     cc-pv5z 
mem_total                 63000
mem_static                8000
thresh                    12
scf_convergence           8
xc_grid                   000075000302
max_scf_cycles            2000
symmetry                  false
sym_ignore                true
scf_guess                 read
skip_scfman               true
cis_n_roots               150
cis_triplets              false
rpa                       false 
trnss                     true
trtype                    3
n_sol                     1
nto_pairs                 2
gui                       2
print_orbitals            true
state_analysis            true
$end

$solute 
2 
$end
--------------------------------------------------------------
 ----------------------------------------------------------------
             Standard Nuclear Orientation (Angstroms)
    I     Atom           X                Y                Z
 ----------------------------------------------------------------
    1      O      -1.1099400000    -0.7248500000    -1.2086700000
    2      H      -1.3468700000    -1.4365500000    -1.7421700000
    3      H      -0.4715400000    -0.9165500000    -0.5415700000
    4      O       0.4618600000    -1.9568500000     0.6271300000
    5      H      -0.2683400000    -2.5956500000     0.7356300000
    6      H       1.3045600000    -2.3541500000     0.8916300000
    7      O       0.5099600000     0.4982500000     2.1556300000
    8      H      -0.2945400000     0.9522500000     1.9616300000
    9      H       0.3481600000    -0.3231500000     1.6136300000
   10      O       0.1710600000     2.3709100000    -1.5903700000
   11      H       0.8548600000     1.8749900000    -1.0961700000
   12      H      -0.6492400000     1.8233000000    -1.5639700000
 ----------------------------------------------------------------
 Nuclear Repulsion Energy =         128.23940114 hartrees
 There are       20 alpha and       20 beta electrons
 Requested basis set is cc-pV5Z
 There are 204 shells and 804 basis functions

 Total QAlloc Memory Limit  63000 MB
 Mega-Array Size      7821 MB
 MEM_STATIC part      8000 MB


                       Distance Matrix (Angstroms)
             O (  1)   H (  2)   H (  3)   O (  4)   H (  5)   H (  6)
   H (  2)  0.920475
   H (  3)  0.943041  1.574180
   O (  4)  2.712663  3.025855  1.821900
   H (  5)  2.826391  2.940448  2.119412  0.976232
   H (  6)  3.591057  3.848243  2.697274  0.968479  1.598960
   O (  7)  3.929194  4.731185  3.199983  2.892428  3.492044  3.219514
   H (  8)  3.678090  4.531214  3.128858  3.288753  3.753846  3.825481
   H (  9)  3.201999  3.920992  2.380949  1.911828  2.513009  2.358166
   O ( 10)  3.372000  4.101696  3.510030  4.871486  5.501824  5.456312
   H ( 11)  3.260715  4.028800  3.140002  4.219859  4.960211  4.694593
   H ( 12)  2.613724  3.338423  2.929788  4.508325  4.996035  5.224787
             O (  7)   H (  8)   H (  9)   O ( 10)   H ( 11)
   H (  8)  0.943913
   H (  9)  0.997317  1.469970
   O ( 10)  4.201693  3.853062  4.189862
   H ( 11)  3.548038  3.394512  3.525845  0.978648
   H ( 12)  4.115207  3.648890  3.962221  0.986644  1.576016

 A cutoff of  1.0D-12 yielded  15376 shell pairs
 There are    215110 function pairs (    361391 Cartesian)
 Smallest overlap matrix eigenvalue = 3.22E-05

 Scale SEOQF with 1.000000e-01/1.000000e-01/1.000000e-01

 Standard Electronic Orientation quadrupole field applied
 Nucleus-field energy     =    -0.0000000012 hartrees
 Guess MOs from SCF MO coefficient file
 Reading MOs from coefficient file
 Reading MOs from coefficient file
 Skipping gen_scfman as requested.
 MAX_CIS_SUBSPACE fits in available memory
 Direct TDDFT/TDA calculation will be performed
 Exchange:     0.2000 Hartree-Fock + 0.0800 Slater + 0.7200 B88
 Correlation:  0.1900 VWN1RPA + 0.8100 LYP
 Using Euler-Maclaurin-Lebedev (75,302) quadrature formula
 Singlet excitation energies requested
 CIS energy converged when residual is below 10e- 6
   
 ***Using a Restricted Set of Single Excitations***
   
 RCIS calculation
   
 Excitations from specified occupied orbitals
 -------------------------------------------------------------
              Orbitals in Truncated CIS space
 -------------------------------------------------------------
     2  21  22  23  24  25  26  27  28  29  30  31  32  33  34
    35  36  37  38  39  40  41  42  43  44  45  46  47  48  49
    50  51  52  53  54  55  56  57  58  59  60  61  62  63  64
    65  66  67  68  69  70  71  72  73  74  75  76  77  78  79
    80  81  82  83  84  85  86  87  88  89  90  91  92  93  94
    95  96  97  98  99 100 101 102 103 104 105 106 107 108 109
   110 111 112 113 114 115 116 117 118 119 120 121 122 123 124
   125 126 127 128 129 130 131 132 133 134 135 136 137 138 139
   140 141 142 143 144 145 146 147 148 149 150 151 152 153 154
   155 156 157 158 159 160 161 162 163 164 165 166 167 168 169
   170 171 172 173 174 175 176 177 178 179 180 181 182 183 184
   185 186 187 188 189 190 191 192 193 194 195 196 197 198 199
   200 201 202 203 204 205 206 207 208 209 210 211 212 213 214
   215 216 217 218 219 220 221 222 223 224 225 226 227 228 229
   230 231 232 233 234 235 236 237 238 239 240 241 242 243 244
   245 246 247 248 249 250 251 252 253 254 255 256 257 258 259
   260 261 262 263 264 265 266 267 268 269 270 271 272 273 274
   275 276 277 278 279 280 281 282 283 284 285 286 287 288 289
   290 291 292 293 294 295 296 297 298 299 300 301 302 303 304
   305 306 307 308 309 310 311 312 313 314 315 316 317 318 319
   320 321 322 323 324 325 326 327 328 329 330 331 332 333 334
   335 336 337 338 339 340 341 342 343 344 345 346 347 348 349
   350 351 352 353 354 355 356 357 358 359 360 361 362 363 364
   365 366 367 368 369 370 371 372 373 374 375 376 377 378 379
   380 381 382 383 384 385 386 387 388 389 390 391 392 393 394
   395 396 397 398 399 400 401 402 403 404 405 406 407 408 409
   410 411 412 413 414 415 416 417 418 419 420 421 422 423 424
   425 426 427 428 429 430 431 432 433 434 435 436 437 438 439
   440 441 442 443 444 445 446 447 448 449 450 451 452 453 454
   455 456 457 458 459 460 461 462 463 464 465 466 467 468 469
   470 471 472 473 474 475 476 477 478 479 480 481 482 483 484
   485 486 487 488 489 490 491 492 493 494 495 496 497 498 499
   500 501 502 503 504 505 506 507 508 509 510 511 512 513 514
   515 516 517 518 519 520 521 522 523 524 525 526 527 528 529
   530 531 532 533 534 535 536 537 538 539 540 541 542 543 544
   545 546 547 548 549 550 551 552 553 554 555 556 557 558 559
   560 561 562 563 564 565 566 567 568 569 570 571 572 573 574
   575 576 577 578 579 580 581 582 583 584 585 586 587 588 589
   590 591 592 593 594 595 596 597 598 599 600 601 602 603 604
   605 606 607 608 609 610 611 612 613 614 615 616 617 618 619
   620 621 622 623 624 625 626 627 628 629 630 631 632 633 634
   635 636 637 638 639 640 641 642 643 644 645 646 647 648 649
   650 651 652 653 654 655 656 657 658 659 660 661 662 663 664
   665 666 667 668 669 670 671 672 673 674 675 676 677 678 679
   680 681 682 683 684 685 686 687 688 689 690 691 692 693 694
   695 696 697 698 699 700 701 702 703 704 705 706 707 708 709
   710 711 712 713 714 715 716 717 718 719 720 721 722 723 724
   725 726 727 728 729 730 731 732 733 734 735 736 737 738 739
   740 741 742 743 744 745 746 747 748 749 750 751 752 753 754
   755 756 757 758 759 760 761 762 763 764 765 766 767 768 769
   770 771 772 773 774 775 776 777 778 779 780 781 782 783 784
   785 786 787 788 789 790 791 792 793 794 795 796 797 798 799
   800 801 802 803 804
   
    Number of Occupied Orbitals =    1  out of    20
    Number of Virtual Orbitals  =  784  out of   784
 -------------------------------------------------------------
 Number of Roots adjusted to:         150
 ---------------------------------------------------
 Iter    Rts Conv    Rts Left    Ttl Dev     Max Dev
 ---------------------------------------------------
   1         0         150      0.027028    0.000447
   2        59          91      0.016925    0.000280
   3       147           3      0.016882    0.000280
   4       150           0      0.016882    0.000280    Roots Converged
 ---------------------------------------------------

 ---------------------------------------------------
         TDDFT/TDA Excitation Energies              
 ---------------------------------------------------

 Excited state   1: excitation energy (eV) =     518.1284
 Total energy for state   1:                  -286.85695531 au
    Multiplicity: Singlet
    Trans. Mom.:  0.0026 X  -0.0128 Y   0.0036 Z
    Strength   :     0.0023421229
    D(    2) --> V(    1) amplitude =  0.9826

 Excited state   2: excitation energy (eV) =     519.4891
 Total energy for state   2:                  -286.80695128 au
    Multiplicity: Singlet
    Trans. Mom.: -0.0050 X  -0.0089 Y  -0.0137 Z
    Strength   :     0.0037234623
    D(    2) --> V(    2) amplitude =  0.8618
    D(    2) --> V(    3) amplitude =  0.3706
    D(    2) --> V(    4) amplitude =  0.2761

 Excited state   3: excitation energy (eV) =     519.8078
 Total energy for state   3:                  -286.79523919 au
    Multiplicity: Singlet
    Trans. Mom.: -0.0075 X  -0.0187 Y  -0.0084 Z
    Strength   :     0.0060849583
    D(    2) --> V(    2) amplitude = -0.4554
    D(    2) --> V(    3) amplitude =  0.8496

 Excited state   4: excitation energy (eV) =     520.4586
 Total energy for state   4:                  -286.77132133 au
    Multiplicity: Singlet
    Trans. Mom.:  0.0050 X  -0.0053 Y  -0.0095 Z
    Strength   :     0.0018387431
    D(    2) --> V(    3) amplitude = -0.3127
    D(    2) --> V(    4) amplitude =  0.9243

 Excited state   5: excitation energy (eV) =     520.9494
 Total energy for state   5:                  -286.75328611 au
    Multiplicity: Singlet
    Trans. Mom.: -0.0058 X  -0.0091 Y   0.0022 Z
    Strength   :     0.0015365785
    D(    2) --> V(    5) amplitude =  0.9714

 Excited state   6: excitation energy (eV) =     521.5812
 Total energy for state   6:                  -286.73006694 au
    Multiplicity: Singlet
    Trans. Mom.: -0.0094 X   0.0130 Y  -0.0008 Z
    Strength   :     0.0032838794
    D(    2) --> V(    6) amplitude =  0.9854

 Excited state   7: excitation energy (eV) =     522.3366
 Total energy for state   7:                  -286.70230438 au
    Multiplicity: Singlet
    Trans. Mom.:  0.0133 X   0.0043 Y   0.0203 Z
    Strength   :     0.0078030202
    D(    2) --> V(    7) amplitude =  0.9212
    D(    2) --> V(    8) amplitude = -0.3319

 Excited state   8: excitation energy (eV) =     523.0090
 Total energy for state   8:                  -286.67759415 au
    Multiplicity: Singlet
    Trans. Mom.: -0.0097 X   0.0017 Y  -0.0027 Z
    Strength   :     0.0013357555
    D(    2) --> V(    7) amplitude =  0.3317
    D(    2) --> V(    8) amplitude =  0.9254

 Excited state   9: excitation energy (eV) =     523.7642
 Total energy for state   9:                  -286.64984364 au
    Multiplicity: Singlet
    Trans. Mom.: -0.0115 X  -0.0083 Y   0.0181 Z
    Strength   :     0.0067740486
    D(    2) --> V(    9) amplitude =  0.8314
    D(    2) --> V(   10) amplitude =  0.4891

 Excited state  10: excitation energy (eV) =     524.0804
 Total energy for state  10:                  -286.63822162 au
    Multiplicity: Singlet
    Trans. Mom.: -0.0148 X  -0.0059 Y   0.0092 Z
    Strength   :     0.0043220085
    D(    2) --> V(    9) amplitude = -0.4251
    D(    2) --> V(   10) amplitude =  0.7759
    D(    2) --> V(   11) amplitude =  0.4193

 Excited state  11: excitation energy (eV) =     524.3852
 Total energy for state  11:                  -286.62702255 au
    Multiplicity: Singlet
    Trans. Mom.: -0.0014 X  -0.0033 Y   0.0034 Z
    Strength   :     0.0003116747
    D(    2) --> V(    9) amplitude =  0.2993
    D(    2) --> V(   10) amplitude = -0.3362
    D(    2) --> V(   11) amplitude =  0.8659

 Excited state  12: excitation energy (eV) =     524.7496
 Total energy for state  12:                  -286.61363092 au
    Multiplicity: Singlet
    Trans. Mom.: -0.0086 X  -0.0113 Y  -0.0084 Z
    Strength   :     0.0034865153
    D(    2) --> V(   12) amplitude =  0.5748
    D(    2) --> V(   13) amplitude =  0.7383

 Excited state  13: excitation energy (eV) =     525.0912
 Total energy for state  13:                  -286.60107635 au
    Multiplicity: Singlet
    Trans. Mom.: -0.0187 X   0.0185 Y  -0.0052 Z
    Strength   :     0.0092475663
    D(    2) --> V(   12) amplitude =  0.7123
    D(    2) --> V(   13) amplitude = -0.5394
    D(    2) --> V(   14) amplitude = -0.2177
    D(    2) --> V(   16) amplitude =  0.2786

 Excited state  14: excitation energy (eV) =     525.6031
 Total energy for state  14:                  -286.58226464 au
    Multiplicity: Singlet
    Trans. Mom.:  0.0153 X  -0.0125 Y  -0.0080 Z
    Strength   :     0.0058217480
    D(    2) --> V(   12) amplitude =  0.2619
    D(    2) --> V(   13) amplitude = -0.2935
    D(    2) --> V(   14) amplitude =  0.7245
    D(    2) --> V(   15) amplitude = -0.2484
    D(    2) --> V(   16) amplitude = -0.4401

 Excited state  15: excitation energy (eV) =     525.6978
 Total energy for state  15:                  -286.57878555 au
    Multiplicity: Singlet
    Trans. Mom.: -0.0141 X   0.0002 Y   0.0146 Z
    Strength   :     0.0052794951
    D(    2) --> V(   14) amplitude =  0.6190
    D(    2) --> V(   15) amplitude =  0.3972
    D(    2) --> V(   16) amplitude =  0.5480
    D(    2) --> V(   17) amplitude =  0.2635

 Excited state  16: excitation energy (eV) =     526.1104
 Total energy for state  16:                  -286.56362035 au
    Multiplicity: Singlet
    Trans. Mom.:  0.0135 X  -0.0107 Y   0.0199 Z
    Strength   :     0.0089411114
    D(    2) --> V(   15) amplitude = -0.2822
    D(    2) --> V(   17) amplitude =  0.7520
    D(    2) --> V(   18) amplitude =  0.3495
    D(    2) --> V(   19) amplitude =  0.2699

 Excited state  17: excitation energy (eV) =     526.2603
 Total energy for state  17:                  -286.55811215 au
    Multiplicity: Singlet
    Trans. Mom.: -0.0023 X  -0.0140 Y  -0.0022 Z
    Strength   :     0.0026449587
    D(    2) --> V(   15) amplitude =  0.7589
    D(    2) --> V(   16) amplitude = -0.3958
    D(    2) --> V(   18) amplitude =  0.4107

 Excited state  18: excitation energy (eV) =     526.4926
 Total energy for state  18:                  -286.54957684 au
    Multiplicity: Singlet
    Trans. Mom.: -0.0043 X  -0.0133 Y  -0.0048 Z
    Strength   :     0.0028082997
    D(    2) --> V(   15) amplitude = -0.2436
    D(    2) --> V(   16) amplitude =  0.3779
    D(    2) --> V(   17) amplitude = -0.4665
    D(    2) --> V(   18) amplitude =  0.6151
    D(    2) --> V(   19) amplitude =  0.3609

 Excited state  19: excitation energy (eV) =     526.7277
 Total energy for state  19:                  -286.54093586 au
    Multiplicity: Singlet
    Trans. Mom.:  0.0040 X   0.0026 Y   0.0023 Z
    Strength   :     0.0003580028
    D(    2) --> V(   18) amplitude = -0.4084
    D(    2) --> V(   19) amplitude =  0.8142

 Excited state  20: excitation energy (eV) =     526.9133
 Total energy for state  20:                  -286.53411561 au
    Multiplicity: Singlet
    Trans. Mom.:  0.0196 X   0.0095 Y   0.0091 Z
    Strength   :     0.0071657825
    D(    2) --> V(   18) amplitude =  0.2497
    D(    2) --> V(   20) amplitude =  0.7408
    D(    2) --> V(   22) amplitude =  0.2941
    D(    2) --> V(   25) amplitude =  0.3073

 Excited state  21: excitation energy (eV) =     527.1918
 Total energy for state  21:                  -286.52388134 au
    Multiplicity: Singlet
    Trans. Mom.: -0.0027 X   0.0049 Y   0.0088 Z
    Strength   :     0.0014114138
    D(    2) --> V(   21) amplitude =  0.7134
    D(    2) --> V(   22) amplitude = -0.6145

 Excited state  22: excitation energy (eV) =     527.2714
 Total energy for state  22:                  -286.52095706 au
    Multiplicity: Singlet
    Trans. Mom.:  0.0077 X   0.0068 Y   0.0071 Z
    Strength   :     0.0020252711
    D(    2) --> V(   20) amplitude = -0.4890
    D(    2) --> V(   21) amplitude =  0.5876
    D(    2) --> V(   22) amplitude =  0.5772

 Excited state  23: excitation energy (eV) =     527.6661
 Total energy for state  23:                  -286.50644877 au
    Multiplicity: Singlet
    Trans. Mom.:  0.0148 X   0.0092 Y   0.0224 Z
    Strength   :     0.0103874931
    D(    2) --> V(   20) amplitude = -0.3138
    D(    2) --> V(   21) amplitude = -0.3163
    D(    2) --> V(   22) amplitude = -0.2614
    D(    2) --> V(   25) amplitude =  0.7775

 Excited state  24: excitation energy (eV) =     527.6912
 Total energy for state  24:                  -286.50552864 au
    Multiplicity: Singlet
    Trans. Mom.:  0.0026 X  -0.0162 Y  -0.0011 Z
    Strength   :     0.0034810937
    D(    2) --> V(   23) amplitude =  0.8180
    D(    2) --> V(   24) amplitude = -0.4391

 Excited state  25: excitation energy (eV) =     528.0418
 Total energy for state  25:                  -286.49264206 au
    Multiplicity: Singlet
    Trans. Mom.:  0.0022 X   0.0033 Y  -0.0093 Z
    Strength   :     0.0013125780
    D(    2) --> V(   23) amplitude =  0.3922
    D(    2) --> V(   24) amplitude =  0.8181
    D(    2) --> V(   25) amplitude = -0.2828

 Excited state  26: excitation energy (eV) =     528.7661
 Total energy for state  26:                  -286.46602438 au
    Multiplicity: Singlet
    Trans. Mom.: -0.0053 X   0.0040 Y  -0.0043 Z
    Strength   :     0.0008056235
    D(    2) --> V(   26) amplitude =  0.8007
    D(    2) --> V(   27) amplitude =  0.4838
    D(    2) --> V(   28) amplitude = -0.2196

 Excited state  27: excitation energy (eV) =     528.9534
 Total energy for state  27:                  -286.45914146 au
    Multiplicity: Singlet
    Trans. Mom.: -0.0013 X  -0.0030 Y   0.0058 Z
    Strength   :     0.0005714486
    D(    2) --> V(   26) amplitude = -0.4775
    D(    2) --> V(   27) amplitude =  0.8156

 Excited state  28: excitation energy (eV) =     529.1865
 Total energy for state  28:                  -286.45057578 au
    Multiplicity: Singlet
    Trans. Mom.:  0.0017 X  -0.0104 Y   0.0107 Z
    Strength   :     0.0029141653
    D(    2) --> V(   26) amplitude =  0.3212
    D(    2) --> V(   28) amplitude =  0.9127

 Excited state  29: excitation energy (eV) =     529.8345
 Total energy for state  29:                  -286.42676313 au
    Multiplicity: Singlet
    Trans. Mom.:  0.0069 X  -0.0010 Y   0.0076 Z
    Strength   :     0.0013697877
    D(    2) --> V(   28) amplitude = -0.2361
    D(    2) --> V(   29) amplitude =  0.9376

 Excited state  30: excitation energy (eV) =     530.5060
 Total energy for state  30:                  -286.40208437 au
    Multiplicity: Singlet
    Trans. Mom.: -0.0032 X   0.0030 Y  -0.0056 Z
    Strength   :     0.0006512372
    D(    2) --> V(   30) amplitude =  0.9759

 Excited state  31: excitation energy (eV) =     530.9030
 Total energy for state  31:                  -286.38749763 au
    Multiplicity: Singlet
    Trans. Mom.: -0.0009 X  -0.0079 Y  -0.0037 Z
    Strength   :     0.0010023556
    D(    2) --> V(   31) amplitude =  0.9800

 Excited state  32: excitation energy (eV) =     531.3537
 Total energy for state  32:                  -286.37093350 au
    Multiplicity: Singlet
    Trans. Mom.:  0.0064 X  -0.0006 Y  -0.0037 Z
    Strength   :     0.0007246607
    D(    2) --> V(   32) amplitude =  0.9308
    D(    2) --> V(   33) amplitude = -0.2359

 Excited state  33: excitation energy (eV) =     531.9978
 Total energy for state  33:                  -286.34726324 au
    Multiplicity: Singlet
    Trans. Mom.:  0.0020 X   0.0016 Y   0.0085 Z
    Strength   :     0.0010278468
    D(    2) --> V(   33) amplitude =  0.7561
    D(    2) --> V(   34) amplitude =  0.6297

 Excited state  34: excitation energy (eV) =     532.0259
 Total energy for state  34:                  -286.34623205 au
    Multiplicity: Singlet
    Trans. Mom.:  0.0025 X   0.0051 Y   0.0081 Z
    Strength   :     0.0012767806
    D(    2) --> V(   32) amplitude = -0.2713
    D(    2) --> V(   33) amplitude = -0.6003
    D(    2) --> V(   34) amplitude =  0.7383

 Excited state  35: excitation energy (eV) =     532.7191
 Total energy for state  35:                  -286.32075520 au
    Multiplicity: Singlet
    Trans. Mom.:  0.0018 X  -0.0046 Y  -0.0112 Z
    Strength   :     0.0019449348
    D(    2) --> V(   35) amplitude =  0.9677

 Excited state  36: excitation energy (eV) =     533.4147
 Total energy for state  36:                  -286.29519337 au
    Multiplicity: Singlet
    Trans. Mom.: -0.0000 X   0.0046 Y  -0.0023 Z
    Strength   :     0.0003497584
    D(    2) --> V(   36) amplitude =  0.9809

 Excited state  37: excitation energy (eV) =     533.5414
 Total energy for state  37:                  -286.29053693 au
    Multiplicity: Singlet
    Trans. Mom.: -0.0077 X  -0.0105 Y   0.0052 Z
    Strength   :     0.0025760970
    D(    2) --> V(   37) amplitude =  0.9806

 Excited state  38: excitation energy (eV) =     534.1830
 Total energy for state  38:                  -286.26695724 au
    Multiplicity: Singlet
    Trans. Mom.:  0.0053 X  -0.0035 Y   0.0033 Z
    Strength   :     0.0006670549
    D(    2) --> V(   38) amplitude =  0.9713

 Excited state  39: excitation energy (eV) =     534.6966
 Total energy for state  39:                  -286.24808315 au
    Multiplicity: Singlet
    Trans. Mom.: -0.0041 X  -0.0038 Y  -0.0036 Z
    Strength   :     0.0005821906
    D(    2) --> V(   39) amplitude =  0.9611

 Excited state  40: excitation energy (eV) =     535.1103
 Total energy for state  40:                  -286.23288121 au
    Multiplicity: Singlet
    Trans. Mom.:  0.0014 X   0.0011 Y   0.0013 Z
    Strength   :     0.0000619629
    D(    2) --> V(   40) amplitude =  0.9548

 Excited state  41: excitation energy (eV) =     535.7237
 Total energy for state  41:                  -286.21034003 au
    Multiplicity: Singlet
    Trans. Mom.: -0.0011 X   0.0031 Y  -0.0047 Z
    Strength   :     0.0004378033
    D(    2) --> V(   41) amplitude =  0.9786

 Excited state  42: excitation energy (eV) =     536.1817
 Total energy for state  42:                  -286.19350772 au
    Multiplicity: Singlet
    Trans. Mom.: -0.0041 X   0.0113 Y  -0.0082 Z
    Strength   :     0.0027903553
    D(    2) --> V(   42) amplitude =  0.9598
    D(    2) --> V(   43) amplitude =  0.2204

 Excited state  43: excitation energy (eV) =     536.5495
 Total energy for state  43:                  -286.17999200 au
    Multiplicity: Singlet
    Trans. Mom.:  0.0065 X  -0.0020 Y  -0.0042 Z
    Strength   :     0.0008292352
    D(    2) --> V(   43) amplitude = -0.6627
    D(    2) --> V(   44) amplitude =  0.7012

 Excited state  44: excitation energy (eV) =     536.7188
 Total energy for state  44:                  -286.17376821 au
    Multiplicity: Singlet
    Trans. Mom.: -0.0032 X  -0.0007 Y   0.0013 Z
    Strength   :     0.0001654625
    D(    2) --> V(   43) amplitude =  0.7033
    D(    2) --> V(   44) amplitude =  0.6771

 Excited state  45: excitation energy (eV) =     537.6558
 Total energy for state  45:                  -286.13933507 au
    Multiplicity: Singlet
    Trans. Mom.:  0.0008 X  -0.0025 Y   0.0021 Z
    Strength   :     0.0001511911
    D(    2) --> V(   45) amplitude = -0.3302
    D(    2) --> V(   46) amplitude =  0.9109

 Excited state  46: excitation energy (eV) =     537.7631
 Total energy for state  46:                  -286.13539205 au
    Multiplicity: Singlet
    Trans. Mom.:  0.0036 X   0.0005 Y   0.0031 Z
    Strength   :     0.0002984566
    D(    2) --> V(   45) amplitude =  0.8867
    D(    2) --> V(   46) amplitude =  0.3121
    D(    2) --> V(   47) amplitude = -0.2826

 Excited state  47: excitation energy (eV) =     538.0163
 Total energy for state  47:                  -286.12608747 au
    Multiplicity: Singlet
    Trans. Mom.:  0.0019 X   0.0047 Y  -0.0006 Z
    Strength   :     0.0003493389
    D(    2) --> V(   45) amplitude =  0.3080
    D(    2) --> V(   47) amplitude =  0.6958
    D(    2) --> V(   48) amplitude =  0.5635

 Excited state  48: excitation energy (eV) =     538.4207
 Total energy for state  48:                  -286.11122670 au
    Multiplicity: Singlet
    Trans. Mom.:  0.0018 X  -0.0014 Y   0.0011 Z
    Strength   :     0.0000848413
    D(    2) --> V(   47) amplitude = -0.6289
    D(    2) --> V(   48) amplitude =  0.7451

 Excited state  49: excitation energy (eV) =     538.9074
 Total energy for state  49:                  -286.09333876 au
    Multiplicity: Singlet
    Trans. Mom.: -0.0127 X   0.0079 Y  -0.0027 Z
    Strength   :     0.0030466745
    D(    2) --> V(   48) amplitude =  0.2166
    D(    2) --> V(   49) amplitude =  0.9301

 Excited state  50: excitation energy (eV) =     539.2958
 Total energy for state  50:                  -286.07906809 au
    Multiplicity: Singlet
    Trans. Mom.:  0.0005 X  -0.0094 Y   0.0054 Z
    Strength   :     0.0015602860
    D(    2) --> V(   50) amplitude =  0.9366

 Excited state  51: excitation energy (eV) =     539.6028
 Total energy for state  51:                  -286.06778464 au
    Multiplicity: Singlet
    Trans. Mom.: -0.0026 X   0.0095 Y  -0.0087 Z
    Strength   :     0.0022836480
    D(    2) --> V(   51) amplitude =  0.9364

 Excited state  52: excitation energy (eV) =     539.8534
 Total energy for state  52:                  -286.05857671 au
    Multiplicity: Singlet
    Trans. Mom.: -0.0016 X   0.0030 Y  -0.0033 Z
    Strength   :     0.0002959197
    D(    2) --> V(   52) amplitude =  0.9431

 Excited state  53: excitation energy (eV) =     540.3228
 Total energy for state  53:                  -286.04132483 au
    Multiplicity: Singlet
    Trans. Mom.: -0.0094 X   0.0041 Y  -0.0031 Z
    Strength   :     0.0015129323
    D(    2) --> V(   53) amplitude =  0.9634

 Excited state  54: excitation energy (eV) =     540.9300
 Total energy for state  54:                  -286.01900931 au
    Multiplicity: Singlet
    Trans. Mom.: -0.0017 X  -0.0012 Y  -0.0064 Z
    Strength   :     0.0005949394
    D(    2) --> V(   54) amplitude =  0.9391
    D(    2) --> V(   55) amplitude =  0.2837

 Excited state  55: excitation energy (eV) =     541.1637
 Total energy for state  55:                  -286.01042390 au
    Multiplicity: Singlet
    Trans. Mom.:  0.0104 X   0.0094 Y   0.0033 Z
    Strength   :     0.0027452031
    D(    2) --> V(   55) amplitude =  0.8124
    D(    2) --> V(   56) amplitude = -0.4509

 Excited state  56: excitation energy (eV) =     541.2415
 Total energy for state  56:                  -286.00756258 au
    Multiplicity: Singlet
    Trans. Mom.:  0.0028 X  -0.0120 Y  -0.0087 Z
    Strength   :     0.0030069867
    D(    2) --> V(   54) amplitude = -0.2357
    D(    2) --> V(   55) amplitude =  0.4833
    D(    2) --> V(   56) amplitude =  0.7270
    D(    2) --> V(   57) amplitude =  0.3418

 Excited state  57: excitation energy (eV) =     541.7718
 Total energy for state  57:                  -285.98807413 au
    Multiplicity: Singlet
    Trans. Mom.:  0.0039 X  -0.0145 Y  -0.0068 Z
    Strength   :     0.0035930183
    D(    2) --> V(   56) amplitude = -0.4867
    D(    2) --> V(   57) amplitude =  0.7958

 Excited state  58: excitation energy (eV) =     542.4529
 Total energy for state  58:                  -285.96304730 au
    Multiplicity: Singlet
    Trans. Mom.: -0.0021 X  -0.0008 Y  -0.0017 Z
    Strength   :     0.0001051082
    D(    2) --> V(   57) amplitude =  0.2856
    D(    2) --> V(   58) amplitude =  0.8646
    D(    2) --> V(   60) amplitude =  0.3066

 Excited state  59: excitation energy (eV) =     542.6685
 Total energy for state  59:                  -285.95512404 au
    Multiplicity: Singlet
    Trans. Mom.:  0.0066 X   0.0022 Y  -0.0067 Z
    Strength   :     0.0012399678
    D(    2) --> V(   58) amplitude =  0.3676
    D(    2) --> V(   59) amplitude =  0.7773
    D(    2) --> V(   60) amplitude = -0.4272
    D(    2) --> V(   61) amplitude =  0.2356

 Excited state  60: excitation energy (eV) =     543.0102
 Total energy for state  60:                  -285.94256337 au
    Multiplicity: Singlet
    Trans. Mom.:  0.0092 X   0.0117 Y   0.0101 Z
    Strength   :     0.0042999025
    D(    2) --> V(   57) amplitude =  0.2179
    D(    2) --> V(   59) amplitude = -0.4734
    D(    2) --> V(   60) amplitude = -0.4261
    D(    2) --> V(   61) amplitude =  0.6700
    D(    2) --> V(   62) amplitude = -0.2692

 Excited state  61: excitation energy (eV) =     543.2350
 Total energy for state  61:                  -285.93430477 au
    Multiplicity: Singlet
    Trans. Mom.:  0.0017 X   0.0086 Y   0.0025 Z
    Strength   :     0.0010965589
    D(    2) --> V(   59) amplitude =  0.3015
    D(    2) --> V(   60) amplitude =  0.7091
    D(    2) --> V(   61) amplitude =  0.5664

 Excited state  62: excitation energy (eV) =     543.6376
 Total energy for state  62:                  -285.91950786 au
    Multiplicity: Singlet
    Trans. Mom.: -0.0076 X  -0.0071 Y  -0.0098 Z
    Strength   :     0.0027340883
    D(    2) --> V(   61) amplitude =  0.2832
    D(    2) --> V(   62) amplitude =  0.9112

 Excited state  63: excitation energy (eV) =     544.5802
 Total energy for state  63:                  -285.88486814 au
    Multiplicity: Singlet
    Trans. Mom.:  0.0004 X   0.0004 Y   0.0024 Z
    Strength   :     0.0000811315
    D(    2) --> V(   63) amplitude =  0.9686

 Excited state  64: excitation energy (eV) =     545.5241
 Total energy for state  64:                  -285.85018153 au
    Multiplicity: Singlet
    Trans. Mom.:  0.0089 X   0.0147 Y   0.0050 Z
    Strength   :     0.0042801769
    D(    2) --> V(   64) amplitude =  0.9587

 Excited state  65: excitation energy (eV) =     546.1656
 Total energy for state  65:                  -285.82660567 au
    Multiplicity: Singlet
    Trans. Mom.:  0.0093 X   0.0032 Y  -0.0041 Z
    Strength   :     0.0015021588
    D(    2) --> V(   65) amplitude =  0.6020
    D(    2) --> V(   66) amplitude = -0.5050
    D(    2) --> V(   67) amplitude =  0.5666

 Excited state  66: excitation energy (eV) =     546.6031
 Total energy for state  66:                  -285.81052863 au
    Multiplicity: Singlet
    Trans. Mom.: -0.0055 X  -0.0009 Y   0.0022 Z
    Strength   :     0.0004755494
    D(    2) --> V(   65) amplitude =  0.7877
    D(    2) --> V(   66) amplitude =  0.4019
    D(    2) --> V(   67) amplitude = -0.4398

 Excited state  67: excitation energy (eV) =     546.8392
 Total energy for state  67:                  -285.80185093 au
    Multiplicity: Singlet
    Trans. Mom.:  0.0046 X  -0.0151 Y  -0.0126 Z
    Strength   :     0.0054809821
    D(    2) --> V(   66) amplitude =  0.6885
    D(    2) --> V(   67) amplitude =  0.6542

 Excited state  68: excitation energy (eV) =     547.3023
 Total energy for state  68:                  -285.78483479 au
    Multiplicity: Singlet
    Trans. Mom.:  0.0040 X  -0.0117 Y   0.0064 Z
    Strength   :     0.0026035391
    D(    2) --> V(   68) amplitude =  0.6704
    D(    2) --> V(   70) amplitude =  0.5030
    D(    2) --> V(   72) amplitude = -0.4216

 Excited state  69: excitation energy (eV) =     547.7559
 Total energy for state  69:                  -285.76816420 au
    Multiplicity: Singlet
    Trans. Mom.:  0.0130 X  -0.0102 Y   0.0016 Z
    Strength   :     0.0037116369
    D(    2) --> V(   68) amplitude = -0.3961
    D(    2) --> V(   69) amplitude =  0.7969
    D(    2) --> V(   70) amplitude =  0.3138

 Excited state  70: excitation energy (eV) =     548.0565
 Total energy for state  70:                  -285.75711640 au
    Multiplicity: Singlet
    Trans. Mom.: -0.0077 X   0.0044 Y  -0.0054 Z
    Strength   :     0.0014541628
    D(    2) --> V(   68) amplitude = -0.5080
    D(    2) --> V(   69) amplitude = -0.4826
    D(    2) --> V(   70) amplitude =  0.5713
    D(    2) --> V(   72) amplitude = -0.2374
    D(    2) --> V(   73) amplitude =  0.2494

 Excited state  71: excitation energy (eV) =     548.3962
 Total energy for state  71:                  -285.74463359 au
    Multiplicity: Singlet
    Trans. Mom.: -0.0141 X   0.0085 Y   0.0044 Z
    Strength   :     0.0039007285
    D(    2) --> V(   68) amplitude =  0.3379
    D(    2) --> V(   69) amplitude =  0.2200
    D(    2) --> V(   71) amplitude =  0.2567
    D(    2) --> V(   72) amplitude =  0.3441
    D(    2) --> V(   73) amplitude =  0.7286
    D(    2) --> V(   74) amplitude =  0.2264

 Excited state  72: excitation energy (eV) =     548.5925
 Total energy for state  72:                  -285.73741949 au
    Multiplicity: Singlet
    Trans. Mom.:  0.0104 X   0.0026 Y  -0.0023 Z
    Strength   :     0.0016101263
    D(    2) --> V(   70) amplitude = -0.2827
    D(    2) --> V(   71) amplitude =  0.9170

 Excited state  73: excitation energy (eV) =     548.7895
 Total energy for state  73:                  -285.73017978 au
    Multiplicity: Singlet
    Trans. Mom.:  0.0065 X  -0.0010 Y   0.0037 Z
    Strength   :     0.0007649293
    D(    2) --> V(   70) amplitude =  0.3915
    D(    2) --> V(   72) amplitude =  0.7591
    D(    2) --> V(   73) amplitude = -0.4235

 Excited state  74: excitation energy (eV) =     549.3420
 Total energy for state  74:                  -285.70987582 au
    Multiplicity: Singlet
    Trans. Mom.: -0.0117 X  -0.0044 Y  -0.0019 Z
    Strength   :     0.0021485190
    D(    2) --> V(   73) amplitude = -0.3301
    D(    2) --> V(   74) amplitude =  0.7175
    D(    2) --> V(   75) amplitude =  0.4665
    D(    2) --> V(   76) amplitude = -0.3322

 Excited state  75: excitation energy (eV) =     549.4714
 Total energy for state  75:                  -285.70512040 au
    Multiplicity: Singlet
    Trans. Mom.: -0.0035 X   0.0013 Y  -0.0196 Z
    Strength   :     0.0053739285
    D(    2) --> V(   74) amplitude = -0.5643
    D(    2) --> V(   75) amplitude =  0.7113
    D(    2) --> V(   76) amplitude = -0.2985

 Excited state  76: excitation energy (eV) =     549.7887
 Total energy for state  76:                  -285.69345981 au
    Multiplicity: Singlet
    Trans. Mom.:  0.0131 X   0.0152 Y   0.0182 Z
    Strength   :     0.0098835111
    D(    2) --> V(   75) amplitude =  0.4832
    D(    2) --> V(   76) amplitude =  0.8206

 Excited state  77: excitation energy (eV) =     550.4446
 Total energy for state  77:                  -285.66935496 au
    Multiplicity: Singlet
    Trans. Mom.: -0.0039 X  -0.0104 Y   0.0259 Z
    Strength   :     0.0106856814
    D(    2) --> V(   76) amplitude = -0.2301
    D(    2) --> V(   77) amplitude =  0.9281

 Excited state  78: excitation energy (eV) =     551.2067
 Total energy for state  78:                  -285.64135055 au
    Multiplicity: Singlet
    Trans. Mom.:  0.0290 X   0.0046 Y  -0.0080 Z
    Strength   :     0.0125400013
    D(    2) --> V(   78) amplitude =  0.8654
    D(    2) --> V(   79) amplitude = -0.4244

 Excited state  79: excitation energy (eV) =     551.7649
 Total energy for state  79:                  -285.62083587 au
    Multiplicity: Singlet
    Trans. Mom.: -0.0072 X  -0.0091 Y   0.0167 Z
    Strength   :     0.0056094288
    D(    2) --> V(   78) amplitude =  0.3845
    D(    2) --> V(   79) amplitude =  0.6521
    D(    2) --> V(   80) amplitude =  0.5669

 Excited state  80: excitation energy (eV) =     552.4332
 Total energy for state  80:                  -285.59627738 au
    Multiplicity: Singlet
    Trans. Mom.:  0.0038 X  -0.0023 Y   0.0088 Z
    Strength   :     0.0013081568
    D(    2) --> V(   78) amplitude = -0.2225
    D(    2) --> V(   79) amplitude = -0.5806
    D(    2) --> V(   80) amplitude =  0.7512

 Excited state  81: excitation energy (eV) =     552.4558
 Total energy for state  81:                  -285.59544406 au
    Multiplicity: Singlet
    Trans. Mom.: -0.0154 X   0.0212 Y   0.0040 Z
    Strength   :     0.0094958662
    D(    2) --> V(   82) amplitude =  0.8529
    D(    2) --> V(   83) amplitude = -0.4428

 Excited state  82: excitation energy (eV) =     552.9260
 Total energy for state  82:                  -285.57816484 au
    Multiplicity: Singlet
    Trans. Mom.: -0.0004 X  -0.0002 Y  -0.0017 Z
    Strength   :     0.0000427713
    D(    2) --> V(   81) amplitude =  0.9824

 Excited state  83: excitation energy (eV) =     553.4065
 Total energy for state  83:                  -285.56050977 au
    Multiplicity: Singlet
    Trans. Mom.:  0.0028 X  -0.0069 Y  -0.0013 Z
    Strength   :     0.0007785731
    D(    2) --> V(   82) amplitude =  0.4410
    D(    2) --> V(   83) amplitude =  0.8815

 Excited state  84: excitation energy (eV) =     554.5491
 Total energy for state  84:                  -285.51851936 au
    Multiplicity: Singlet
    Trans. Mom.:  0.0153 X   0.0125 Y  -0.0184 Z
    Strength   :     0.0098979944
    D(    2) --> V(   84) amplitude =  0.9652

 Excited state  85: excitation energy (eV) =     555.1076
 Total energy for state  85:                  -285.49799519 au
    Multiplicity: Singlet
    Trans. Mom.: -0.0046 X   0.0049 Y   0.0017 Z
    Strength   :     0.0006463172
    D(    2) --> V(   85) amplitude =  0.9069
    D(    2) --> V(   86) amplitude = -0.3960

 Excited state  86: excitation energy (eV) =     555.5988
 Total energy for state  86:                  -285.47994133 au
    Multiplicity: Singlet
    Trans. Mom.:  0.0046 X  -0.0048 Y   0.0051 Z
    Strength   :     0.0009605347
    D(    2) --> V(   85) amplitude =  0.3898
    D(    2) --> V(   86) amplitude =  0.9045

 Excited state  87: excitation energy (eV) =     556.1934
 Total energy for state  87:                  -285.45809269 au
    Multiplicity: Singlet
    Trans. Mom.:  0.0155 X  -0.0001 Y  -0.0029 Z
    Strength   :     0.0033830682
    D(    2) --> V(   87) amplitude =  0.9696

 Excited state  88: excitation energy (eV) =     556.8665
 Total energy for state  88:                  -285.43335544 au
    Multiplicity: Singlet
    Trans. Mom.: -0.0095 X  -0.0041 Y   0.0097 Z
    Strength   :     0.0027381998
    D(    2) --> V(   88) amplitude =  0.9056
    D(    2) --> V(   89) amplitude = -0.3739

 Excited state  89: excitation energy (eV) =     557.1028
 Total energy for state  89:                  -285.42467129 au
    Multiplicity: Singlet
    Trans. Mom.:  0.0111 X  -0.0035 Y  -0.0048 Z
    Strength   :     0.0021689073
    D(    2) --> V(   88) amplitude =  0.3860
    D(    2) --> V(   89) amplitude =  0.9034

 Excited state  90: excitation energy (eV) =     557.9807
 Total energy for state  90:                  -285.39241004 au
    Multiplicity: Singlet
    Trans. Mom.:  0.0016 X   0.0034 Y   0.0025 Z
    Strength   :     0.0002753391
    D(    2) --> V(   90) amplitude =  0.9814

 Excited state  91: excitation energy (eV) =     558.3639
 Total energy for state  91:                  -285.37832549 au
    Multiplicity: Singlet
    Trans. Mom.:  0.0041 X  -0.0140 Y   0.0017 Z
    Strength   :     0.0029463479
    D(    2) --> V(   91) amplitude =  0.9577

 Excited state  92: excitation energy (eV) =     558.9300
 Total energy for state  92:                  -285.35752354 au
    Multiplicity: Singlet
    Trans. Mom.: -0.0035 X   0.0041 Y   0.0095 Z
    Strength   :     0.0016350680
    D(    2) --> V(   92) amplitude =  0.9555
    D(    2) --> V(   93) amplitude = -0.2154

 Excited state  93: excitation energy (eV) =     559.2909
 Total energy for state  93:                  -285.34425970 au
    Multiplicity: Singlet
    Trans. Mom.:  0.0048 X   0.0055 Y   0.0018 Z
    Strength   :     0.0007773894
    D(    2) --> V(   93) amplitude =  0.9395

 Excited state  94: excitation energy (eV) =     559.6135
 Total energy for state  94:                  -285.33240614 au
    Multiplicity: Singlet
    Trans. Mom.:  0.0019 X  -0.0035 Y  -0.0040 Z
    Strength   :     0.0004419138
    D(    2) --> V(   94) amplitude =  0.9506

 Excited state  95: excitation energy (eV) =     560.1102
 Total energy for state  95:                  -285.31415110 au
    Multiplicity: Singlet
    Trans. Mom.: -0.0032 X  -0.0010 Y   0.0088 Z
    Strength   :     0.0012161015
    D(    2) --> V(   95) amplitude =  0.9783

 Excited state  96: excitation energy (eV) =     560.3541
 Total energy for state  96:                  -285.30518684 au
    Multiplicity: Singlet
    Trans. Mom.:  0.0079 X  -0.0100 Y  -0.0042 Z
    Strength   :     0.0024624466
    D(    2) --> V(   96) amplitude =  0.9677

 Excited state  97: excitation energy (eV) =     560.9248
 Total energy for state  97:                  -285.28421390 au
    Multiplicity: Singlet
    Trans. Mom.: -0.0006 X  -0.0061 Y  -0.0014 Z
    Strength   :     0.0005380035
    D(    2) --> V(   97) amplitude =  0.9555

 Excited state  98: excitation energy (eV) =     561.5872
 Total energy for state  98:                  -285.25987379 au
    Multiplicity: Singlet
    Trans. Mom.: -0.0059 X  -0.0017 Y  -0.0023 Z
    Strength   :     0.0005886435
    D(    2) --> V(   98) amplitude =  0.9522

 Excited state  99: excitation energy (eV) =     561.9516
 Total energy for state  99:                  -285.24647983 au
    Multiplicity: Singlet
    Trans. Mom.:  0.0096 X  -0.0075 Y   0.0023 Z
    Strength   :     0.0021195147
    D(    2) --> V(   99) amplitude =  0.4374
    D(    2) --> V(  100) amplitude =  0.5096
    D(    2) --> V(  101) amplitude =  0.6074
    D(    2) --> V(  102) amplitude =  0.3246

 Excited state 100: excitation energy (eV) =     562.1419
 Total energy for state 100:                  -285.23948760 au
    Multiplicity: Singlet
    Trans. Mom.: -0.0015 X   0.0137 Y   0.0028 Z
    Strength   :     0.0027040521
    D(    2) --> V(   99) amplitude =  0.8550
    D(    2) --> V(  100) amplitude = -0.4285

 Excited state 101: excitation energy (eV) =     562.4084
 Total energy for state 101:                  -285.22969452 au
    Multiplicity: Singlet
    Trans. Mom.: -0.0099 X  -0.0093 Y  -0.0039 Z
    Strength   :     0.0027411050
    D(    2) --> V(  100) amplitude = -0.6075
    D(    2) --> V(  101) amplitude =  0.6402
    D(    2) --> V(  103) amplitude = -0.3491

 Excited state 102: excitation energy (eV) =     562.5274
 Total energy for state 102:                  -285.22532304 au
    Multiplicity: Singlet
    Trans. Mom.:  0.0062 X  -0.0094 Y   0.0026 Z
    Strength   :     0.0018569510
    D(    2) --> V(  100) amplitude = -0.3494
    D(    2) --> V(  102) amplitude =  0.8859

 Excited state 103: excitation energy (eV) =     562.8921
 Total energy for state 103:                  -285.21191800 au
    Multiplicity: Singlet
    Trans. Mom.:  0.0035 X   0.0124 Y   0.0009 Z
    Strength   :     0.0022952851
    D(    2) --> V(  101) amplitude =  0.3808
    D(    2) --> V(  103) amplitude =  0.8800

 Excited state 104: excitation energy (eV) =     563.0824
 Total energy for state 104:                  -285.20492503 au
    Multiplicity: Singlet
    Trans. Mom.:  0.0007 X   0.0024 Y  -0.0031 Z
    Strength   :     0.0002180413
    D(    2) --> V(  104) amplitude =  0.9696

 Excited state 105: excitation energy (eV) =     563.7929
 Total energy for state 105:                  -285.17881404 au
    Multiplicity: Singlet
    Trans. Mom.: -0.0042 X   0.0074 Y  -0.0136 Z
    Strength   :     0.0035714529
    D(    2) --> V(  105) amplitude =  0.9665

 Excited state 106: excitation energy (eV) =     564.6682
 Total energy for state 106:                  -285.14664795 au
    Multiplicity: Singlet
    Trans. Mom.:  0.0039 X   0.0014 Y   0.0030 Z
    Strength   :     0.0003692253
    D(    2) --> V(  106) amplitude =  0.9794

 Excited state 107: excitation energy (eV) =     565.0666
 Total energy for state 107:                  -285.13200747 au
    Multiplicity: Singlet
    Trans. Mom.: -0.0012 X   0.0086 Y   0.0007 Z
    Strength   :     0.0010534126
    D(    2) --> V(  107) amplitude =  0.9706

 Excited state 108: excitation energy (eV) =     565.2769
 Total energy for state 108:                  -285.12427868 au
    Multiplicity: Singlet
    Trans. Mom.:  0.0103 X  -0.0011 Y  -0.0047 Z
    Strength   :     0.0018036205
    D(    2) --> V(  108) amplitude =  0.9709

 Excited state 109: excitation energy (eV) =     565.6197
 Total energy for state 109:                  -285.11167955 au
    Multiplicity: Singlet
    Trans. Mom.: -0.0020 X   0.0011 Y  -0.0016 Z
    Strength   :     0.0001098697
    D(    2) --> V(  109) amplitude =  0.9676

 Excited state 110: excitation energy (eV) =     565.8416
 Total energy for state 110:                  -285.10352746 au
    Multiplicity: Singlet
    Trans. Mom.: -0.0039 X   0.0019 Y   0.0037 Z
    Strength   :     0.0004518975
    D(    2) --> V(  110) amplitude =  0.9392

 Excited state 111: excitation energy (eV) =     566.1421
 Total energy for state 111:                  -285.09248508 au
    Multiplicity: Singlet
    Trans. Mom.:  0.0024 X  -0.0024 Y   0.0069 Z
    Strength   :     0.0008200567
    D(    2) --> V(  110) amplitude = -0.2435
    D(    2) --> V(  111) amplitude =  0.9266

 Excited state 112: excitation energy (eV) =     566.5615
 Total energy for state 112:                  -285.07707005 au
    Multiplicity: Singlet
    Trans. Mom.:  0.0011 X   0.0028 Y  -0.0117 Z
    Strength   :     0.0020322208
    D(    2) --> V(  111) amplitude =  0.2233
    D(    2) --> V(  112) amplitude =  0.8866
    D(    2) --> V(  114) amplitude =  0.2911

 Excited state 113: excitation energy (eV) =     566.7501
 Total energy for state 113:                  -285.07013838 au
    Multiplicity: Singlet
    Trans. Mom.:  0.0046 X   0.0044 Y   0.0119 Z
    Strength   :     0.0025363202
    D(    2) --> V(  112) amplitude =  0.3381
    D(    2) --> V(  113) amplitude =  0.7050
    D(    2) --> V(  114) amplitude = -0.5837

 Excited state 114: excitation energy (eV) =     566.9786
 Total energy for state 114:                  -285.06174342 au
    Multiplicity: Singlet
    Trans. Mom.: -0.0088 X  -0.0040 Y  -0.0082 Z
    Strength   :     0.0022448719
    D(    2) --> V(  113) amplitude =  0.6512
    D(    2) --> V(  114) amplitude =  0.6847

 Excited state 115: excitation energy (eV) =     567.6063
 Total energy for state 115:                  -285.03867640 au
    Multiplicity: Singlet
    Trans. Mom.: -0.0035 X  -0.0021 Y  -0.0055 Z
    Strength   :     0.0006501109
    D(    2) --> V(  115) amplitude =  0.9655

 Excited state 116: excitation energy (eV) =     567.9274
 Total energy for state 116:                  -285.02687441 au
    Multiplicity: Singlet
    Trans. Mom.:  0.0055 X  -0.0003 Y   0.0009 Z
    Strength   :     0.0004352045
    D(    2) --> V(  116) amplitude =  0.8415
    D(    2) --> V(  117) amplitude =  0.4123

 Excited state 117: excitation energy (eV) =     568.0770
 Total energy for state 117:                  -285.02137887 au
    Multiplicity: Singlet
    Trans. Mom.:  0.0033 X   0.0074 Y   0.0017 Z
    Strength   :     0.0009469647
    D(    2) --> V(  116) amplitude = -0.4575
    D(    2) --> V(  117) amplitude =  0.6218
    D(    2) --> V(  118) amplitude = -0.5270
    D(    2) --> V(  120) amplitude = -0.2483

 Excited state 118: excitation energy (eV) =     568.3897
 Total energy for state 118:                  -285.00988426 au
    Multiplicity: Singlet
    Trans. Mom.: -0.0004 X  -0.0037 Y  -0.0029 Z
    Strength   :     0.0003123797
    D(    2) --> V(  117) amplitude =  0.5472
    D(    2) --> V(  118) amplitude =  0.7827
    D(    2) --> V(  119) amplitude =  0.2148

 Excited state 119: excitation energy (eV) =     568.7002
 Total energy for state 119:                  -284.99847519 au
    Multiplicity: Singlet
    Trans. Mom.: -0.0023 X  -0.0031 Y  -0.0100 Z
    Strength   :     0.0015929336
    D(    2) --> V(  117) amplitude = -0.2123
    D(    2) --> V(  119) amplitude =  0.9438

 Excited state 120: excitation energy (eV) =     569.0657
 Total energy for state 120:                  -284.98504355 au
    Multiplicity: Singlet
    Trans. Mom.: -0.0006 X  -0.0035 Y  -0.0012 Z
    Strength   :     0.0001988524
    D(    2) --> V(  117) amplitude =  0.2259
    D(    2) --> V(  120) amplitude =  0.9139
    D(    2) --> V(  121) amplitude =  0.2150

 Excited state 121: excitation energy (eV) =     569.6372
 Total energy for state 121:                  -284.96404209 au
    Multiplicity: Singlet
    Trans. Mom.: -0.0021 X   0.0047 Y  -0.0022 Z
    Strength   :     0.0004403389
    D(    2) --> V(  121) amplitude =  0.8456
    D(    2) --> V(  122) amplitude = -0.4643

 Excited state 122: excitation energy (eV) =     569.8669
 Total energy for state 122:                  -284.95560019 au
    Multiplicity: Singlet
    Trans. Mom.:  0.0066 X  -0.0065 Y   0.0050 Z
    Strength   :     0.0015600711
    D(    2) --> V(  121) amplitude =  0.4352
    D(    2) --> V(  122) amplitude =  0.8247
    D(    2) --> V(  123) amplitude =  0.2716

 Excited state 123: excitation energy (eV) =     570.0974
 Total energy for state 123:                  -284.94713053 au
    Multiplicity: Singlet
    Trans. Mom.:  0.0023 X  -0.0050 Y  -0.0012 Z
    Strength   :     0.0004355497
    D(    2) --> V(  122) amplitude = -0.2209
    D(    2) --> V(  123) amplitude =  0.9324

 Excited state 124: excitation energy (eV) =     570.5512
 Total energy for state 124:                  -284.93045358 au
    Multiplicity: Singlet
    Trans. Mom.: -0.0001 X   0.0016 Y  -0.0029 Z
    Strength   :     0.0001494394
    D(    2) --> V(  124) amplitude =  0.9650

 Excited state 125: excitation energy (eV) =     570.7664
 Total energy for state 125:                  -284.92254474 au
    Multiplicity: Singlet
    Trans. Mom.:  0.0005 X   0.0036 Y  -0.0019 Z
    Strength   :     0.0002374436
    D(    2) --> V(  125) amplitude =  0.9585

 Excited state 126: excitation energy (eV) =     571.3292
 Total energy for state 126:                  -284.90186161 au
    Multiplicity: Singlet
    Trans. Mom.:  0.0010 X   0.0076 Y   0.0008 Z
    Strength   :     0.0008265894
    D(    2) --> V(  126) amplitude =  0.9173
    D(    2) --> V(  127) amplitude = -0.2137
    D(    2) --> V(  128) amplitude =  0.2125

 Excited state 127: excitation energy (eV) =     571.8339
 Total energy for state 127:                  -284.88331331 au
    Multiplicity: Singlet
    Trans. Mom.: -0.0049 X   0.0028 Y  -0.0041 Z
    Strength   :     0.0006822680
    D(    2) --> V(  126) amplitude =  0.2371
    D(    2) --> V(  127) amplitude =  0.9571

 Excited state 128: excitation energy (eV) =     572.1351
 Total energy for state 128:                  -284.87224615 au
    Multiplicity: Singlet
    Trans. Mom.:  0.0062 X   0.0010 Y  -0.0027 Z
    Strength   :     0.0006662554
    D(    2) --> V(  128) amplitude =  0.9646

 Excited state 129: excitation energy (eV) =     572.5430
 Total energy for state 129:                  -284.85725388 au
    Multiplicity: Singlet
    Trans. Mom.:  0.0037 X  -0.0070 Y   0.0066 Z
    Strength   :     0.0014952195
    D(    2) --> V(  129) amplitude =  0.9598

 Excited state 130: excitation energy (eV) =     572.8736
 Total energy for state 130:                  -284.84510526 au
    Multiplicity: Singlet
    Trans. Mom.:  0.0088 X  -0.0063 Y   0.0130 Z
    Strength   :     0.0040206995
    D(    2) --> V(  130) amplitude =  0.9421

 Excited state 131: excitation energy (eV) =     573.2433
 Total energy for state 131:                  -284.83151919 au
    Multiplicity: Singlet
    Trans. Mom.: -0.0008 X   0.0006 Y   0.0013 Z
    Strength   :     0.0000405491
    D(    2) --> V(  131) amplitude =  0.9867

 Excited state 132: excitation energy (eV) =     574.1463
 Total energy for state 132:                  -284.79833481 au
    Multiplicity: Singlet
    Trans. Mom.:  0.0083 X   0.0002 Y   0.0076 Z
    Strength   :     0.0017649909
    D(    2) --> V(  132) amplitude =  0.9288
    D(    2) --> V(  133) amplitude =  0.2449

 Excited state 133: excitation energy (eV) =     574.1975
 Total energy for state 133:                  -284.79645191 au
    Multiplicity: Singlet
    Trans. Mom.:  0.0042 X   0.0085 Y  -0.0007 Z
    Strength   :     0.0012668521
    D(    2) --> V(  133) amplitude =  0.7095
    D(    2) --> V(  134) amplitude =  0.6572

 Excited state 134: excitation energy (eV) =     574.3396
 Total energy for state 134:                  -284.79123217 au
    Multiplicity: Singlet
    Trans. Mom.: -0.0043 X   0.0058 Y  -0.0011 Z
    Strength   :     0.0007526023
    D(    2) --> V(  133) amplitude = -0.6335
    D(    2) --> V(  134) amplitude =  0.6703
    D(    2) --> V(  136) amplitude = -0.2682

 Excited state 135: excitation energy (eV) =     574.6703
 Total energy for state 135:                  -284.77907968 au
    Multiplicity: Singlet
    Trans. Mom.:  0.0008 X  -0.0016 Y  -0.0019 Z
    Strength   :     0.0000928925
    D(    2) --> V(  135) amplitude =  0.9883

 Excited state 136: excitation energy (eV) =     574.9655
 Total energy for state 136:                  -284.76823013 au
    Multiplicity: Singlet
    Trans. Mom.: -0.0002 X  -0.0080 Y  -0.0016 Z
    Strength   :     0.0009416317
    D(    2) --> V(  134) amplitude =  0.2413
    D(    2) --> V(  136) amplitude =  0.7905
    D(    2) --> V(  137) amplitude =  0.5052

 Excited state 137: excitation energy (eV) =     575.3878
 Total energy for state 137:                  -284.75271141 au
    Multiplicity: Singlet
    Trans. Mom.: -0.0013 X   0.0007 Y  -0.0021 Z
    Strength   :     0.0000912419
    D(    2) --> V(  136) amplitude = -0.5253
    D(    2) --> V(  137) amplitude =  0.8278

 Excited state 138: excitation energy (eV) =     576.0677
 Total energy for state 138:                  -284.72772347 au
    Multiplicity: Singlet
    Trans. Mom.:  0.0047 X   0.0044 Y  -0.0017 Z
    Strength   :     0.0006289486
    D(    2) --> V(  138) amplitude =  0.9705

 Excited state 139: excitation energy (eV) =     576.7542
 Total energy for state 139:                  -284.70249581 au
    Multiplicity: Singlet
    Trans. Mom.: -0.0025 X   0.0040 Y  -0.0065 Z
    Strength   :     0.0009029286
    D(    2) --> V(  139) amplitude =  0.9751

 Excited state 140: excitation energy (eV) =     578.0306
 Total energy for state 140:                  -284.65558948 au
    Multiplicity: Singlet
    Trans. Mom.: -0.0060 X  -0.0073 Y   0.0092 Z
    Strength   :     0.0024628097
    D(    2) --> V(  140) amplitude =  0.8215
    D(    2) --> V(  142) amplitude =  0.4831

 Excited state 141: excitation energy (eV) =     578.2687
 Total energy for state 141:                  -284.64684013 au
    Multiplicity: Singlet
    Trans. Mom.:  0.0039 X   0.0006 Y   0.0003 Z
    Strength   :     0.0002220671
    D(    2) --> V(  140) amplitude =  0.2751
    D(    2) --> V(  141) amplitude =  0.8582
    D(    2) --> V(  142) amplitude = -0.3107

 Excited state 142: excitation energy (eV) =     578.4443
 Total energy for state 142:                  -284.64038604 au
    Multiplicity: Singlet
    Trans. Mom.: -0.0105 X   0.0034 Y   0.0044 Z
    Strength   :     0.0020066500
    D(    2) --> V(  140) amplitude = -0.4323
    D(    2) --> V(  141) amplitude =  0.3746
    D(    2) --> V(  142) amplitude =  0.7620
    D(    2) --> V(  144) amplitude =  0.2423

 Excited state 143: excitation energy (eV) =     579.4986
 Total energy for state 143:                  -284.60164226 au
    Multiplicity: Singlet
    Trans. Mom.:  0.0024 X   0.0054 Y  -0.0018 Z
    Strength   :     0.0005333451
    D(    2) --> V(  143) amplitude =  0.9516

 Excited state 144: excitation energy (eV) =     580.0449
 Total energy for state 144:                  -284.58156356 au
    Multiplicity: Singlet
    Trans. Mom.: -0.0039 X   0.0013 Y   0.0048 Z
    Strength   :     0.0005602577
    D(    2) --> V(  141) amplitude = -0.2340
    D(    2) --> V(  142) amplitude = -0.2369
    D(    2) --> V(  144) amplitude =  0.9034

 Excited state 145: excitation energy (eV) =     580.6540
 Total energy for state 145:                  -284.55918082 au
    Multiplicity: Singlet
    Trans. Mom.:  0.0090 X  -0.0057 Y   0.0069 Z
    Strength   :     0.0022865089
    D(    2) --> V(  144) amplitude =  0.2480
    D(    2) --> V(  145) amplitude =  0.6721
    D(    2) --> V(  146) amplitude =  0.6561

 Excited state 146: excitation energy (eV) =     581.0391
 Total energy for state 146:                  -284.54502974 au
    Multiplicity: Singlet
    Trans. Mom.: -0.0048 X  -0.0054 Y   0.0013 Z
    Strength   :     0.0007605018
    D(    2) --> V(  145) amplitude =  0.6837
    D(    2) --> V(  146) amplitude = -0.6828

 Excited state 147: excitation energy (eV) =     581.8225
 Total energy for state 147:                  -284.51623905 au
    Multiplicity: Singlet
    Trans. Mom.: -0.0014 X  -0.0004 Y   0.0009 Z
    Strength   :     0.0000396419
    D(    2) --> V(  147) amplitude =  0.9625

 Excited state 148: excitation energy (eV) =     582.4004
 Total energy for state 148:                  -284.49500242 au
    Multiplicity: Singlet
    Trans. Mom.: -0.0022 X  -0.0009 Y  -0.0015 Z
    Strength   :     0.0001115800
    D(    2) --> V(  148) amplitude =  0.9780

 Excited state 149: excitation energy (eV) =     583.0070
 Total energy for state 149:                  -284.47271126 au
    Multiplicity: Singlet
    Trans. Mom.:  0.0020 X   0.0074 Y   0.0051 Z
    Strength   :     0.0012109350
    D(    2) --> V(  149) amplitude = -0.4773
    D(    2) --> V(  150) amplitude =  0.6851
    D(    2) --> V(  151) amplitude =  0.3309
    D(    2) --> V(  152) amplitude = -0.3694

 Excited state 150: excitation energy (eV) =     583.2624
 Total energy for state 150:                  -284.46332271 au
    Multiplicity: Singlet
    Trans. Mom.:  0.0035 X   0.0103 Y   0.0007 Z
    Strength   :     0.0017028245
    D(    2) --> V(  149) amplitude =  0.8247
    D(    2) --> V(  150) amplitude =  0.5104

 ---------------------------------------------------
  SETman timing summary (seconds)
  CPU time            240904.28s
  System time              0.01s
  Wall time           120646.27s
================================================================================
                             Excited State Analysis
================================================================================

  Ground State (Reference) :
  -------------------------
    NOs
      Occupation of frontier NOs:
         0.0000   0.0000   2.0000   2.0000
      Number of electrons: 40.000000
      Number of unpaired electrons: n_u = -0.00000, n_u,nl =  0.00000
    
    Mulliken Population Analysis (State DM)
    Atom      Charge (e)
    --------------------
     1 O       -0.683007
     2 H        0.280539
     3 H        0.388055
     4 O       -0.651649
     5 H        0.339507
     6 H        0.342418
     7 O       -0.662776
     8 H        0.295068
     9 H        0.355023
    10 O       -0.649932
    11 H        0.308630
    12 H        0.338121
    --------------------
    Sum:       -0.000000
    
    Multipole moment analysis of the density matrix
      Molecular charge:                      0.000000
      Number of electrons:                   40.000000
        Center of electronic charge [Ang]: [ -0.003571,  -0.003407,   0.000055]
      Total nuclear charge:                  40.000000
        Center of nuclear charge [Ang]:    [ -0.006486,  -0.036896,   0.003210]
      Dipole moment [D]:                     6.486791
        Cartesian components [D]:          [ -0.560018,  -6.434073,   0.606252]
      RMS size of the density [Ang]:         2.387030
        Cartesian components [Ang]:        [  0.776315,   1.654412,   1.535633]
    

  ----------------------------------------------------------------------------
                  Analysis of Unrelaxed Density Matrices
  ----------------------------------------------------------------------------

  Singlet 1 :
  -------------------------
    NOs
      Occupation of frontier NOs:
         0.0000   1.0000   1.0000   2.0000
      Number of electrons: 40.000000
      Number of unpaired electrons: n_u =  2.00000, n_u,nl =  2.00000
      NO participation ratio (PR_NO):  2.000000
    
    NDOs
      Leading detachment eigenvalues:
        -1.0000  -0.0000
      Leading attachment eigenvalues:
         1.0000   0.0000
      Number of detached / attached electrons: p_D =  1.0000, p_A =  1.0000
      Number of involved orbitals: PR_D =  1.000000, PR_A =  1.000000
    
    Mulliken Population Analysis (State/Difference DM)
    Atom      Charge (e)              h+              e-           Del q
    --------------------------------------------------------------------
     1 O        0.278208        0.990957       -0.029742        0.961216
     2 H       -0.042192        0.004584       -0.327315       -0.322731
     3 H        0.586319        0.004458        0.193806        0.198264
     4 O       -0.568640        0.000000        0.083008        0.083008
     5 H       -0.159945        0.000000       -0.499452       -0.499452
     6 H       -0.029173        0.000000       -0.371591       -0.371591
     7 O       -0.679982        0.000000       -0.017206       -0.017206
     8 H        0.220704       -0.000000       -0.074365       -0.074365
     9 H        0.435322        0.000000        0.080298        0.080299
    10 O       -0.647879        0.000000        0.002052        0.002053
    11 H        0.278177        0.000000       -0.030454       -0.030454
    12 H        0.329082       -0.000001       -0.009039       -0.009039
    --------------------------------------------------------------------
    Sum:       -0.000000        1.000000       -1.000000       -0.000000
    
    Multipole moment analysis of the density matrix
      Molecular charge:                      -0.000000
      Number of electrons:                   40.000000
        Center of electronic charge [Ang]: [  0.020181,  -0.037733,   0.035419]
      Total nuclear charge:                  40.000000
        Center of nuclear charge [Ang]:    [ -0.006486,  -0.036896,   0.003210]
      Dipole moment [D]:                     8.035541
        Cartesian components [D]:          [ -5.123486,   0.160831,  -6.188211]
      RMS size of the density [Ang]:         2.427053
        Cartesian components [Ang]:        [  0.790159,   1.699555,   1.541995]
    
    Exciton analysis of the difference density matrix
      <r_h> [Ang]:                  [ -1.109885,  -0.724992,  -1.208656]
      <r_e> [Ang]:                  [ -0.159797,  -2.098014,   0.205912]
      |<r_e - r_h>| [Ang]:            2.188347
      Hole size [Ang]:                0.122785
        Cartesian components [Ang]: [  0.070887,   0.070891,   0.070893]
      Electron size [Ang]:            2.567720
        Cartesian components [Ang]: [  1.447265,   1.497271,   1.502260]

  Singlet 2 :
  -------------------------
    NOs
      Occupation of frontier NOs:
         0.0000   1.0000   1.0000   2.0000
      Number of electrons: 40.000000
      Number of unpaired electrons: n_u =  2.00000, n_u,nl =  2.00000
      NO participation ratio (PR_NO):  2.000000
    
    NDOs
      Leading detachment eigenvalues:
        -1.0000  -0.0000
      Leading attachment eigenvalues:
         1.0000   0.0000
      Number of detached / attached electrons: p_D =  1.0000, p_A =  1.0000
      Number of involved orbitals: PR_D =  1.000000, PR_A =  1.000000
    
    Mulliken Population Analysis (State/Difference DM)
    Atom      Charge (e)              h+              e-           Del q
    --------------------------------------------------------------------
     1 O        0.483224        0.990957        0.175273        1.166231
     2 H       -0.414745        0.004584       -0.699868       -0.695284
     3 H        0.394364        0.004458        0.001850        0.006309
     4 O       -0.571533        0.000000        0.080115        0.080115
     5 H        0.329625        0.000000       -0.009882       -0.009882
     6 H       -0.060540        0.000000       -0.402958       -0.402958
     7 O       -0.670131        0.000000       -0.007356       -0.007356
     8 H        0.292142       -0.000000       -0.002926       -0.002926
     9 H        0.364028        0.000000        0.009004        0.009004
    10 O       -0.622976        0.000000        0.026956        0.026956
    11 H        0.268874        0.000000       -0.039757       -0.039756
    12 H        0.207669       -0.000001       -0.130451       -0.130452
    --------------------------------------------------------------------
    Sum:       -0.000000        1.000000       -1.000000       -0.000000
    
    Multipole moment analysis of the density matrix
      Molecular charge:                      -0.000000
      Number of electrons:                   40.000000
        Center of electronic charge [Ang]: [  0.013618,  -0.022828,   0.008842]
      Total nuclear charge:                  40.000000
        Center of nuclear charge [Ang]:    [ -0.006486,  -0.036896,   0.003210]
      Dipole moment [D]:                     4.836847
        Cartesian components [D]:          [ -3.862587,  -2.702750,  -1.081971]
      RMS size of the density [Ang]:         2.434964
        Cartesian components [Ang]:        [  0.805619,   1.690514,   1.556339]
    
    Exciton analysis of the difference density matrix
      <r_h> [Ang]:                  [ -1.109885,  -0.724992,  -1.208656]
      <r_e> [Ang]:                  [ -0.422309,  -1.501833,  -0.857178]
      |<r_e - r_h>| [Ang]:            1.095344
      Hole size [Ang]:                0.122785
        Cartesian components [Ang]: [  0.070887,   0.070891,   0.070893]
      Electron size [Ang]:            3.056247
        Cartesian components [Ang]: [  1.708709,   1.768028,   1.815224]

  Singlet 3 :
  -------------------------
    NOs
      Occupation of frontier NOs:
         0.0000   1.0000   1.0000   2.0000
      Number of electrons: 40.000000
      Number of unpaired electrons: n_u =  2.00000, n_u,nl =  2.00000
      NO participation ratio (PR_NO):  2.000000
    
    NDOs
      Leading detachment eigenvalues:
        -1.0000  -0.0000
      Leading attachment eigenvalues:
         1.0000   0.0000
      Number of detached / attached electrons: p_D =  1.0000, p_A =  1.0000
      Number of involved orbitals: PR_D =  1.000000, PR_A =  1.000000
    
    Mulliken Population Analysis (State/Difference DM)
    Atom      Charge (e)              h+              e-           Del q
    --------------------------------------------------------------------
     1 O        0.407737        0.990957        0.099787        1.090744
     2 H        0.029181        0.004584       -0.255942       -0.251358
     3 H        0.286477        0.004458       -0.106037       -0.101579
     4 O       -0.637877        0.000000        0.013771        0.013771
     5 H        0.231652        0.000000       -0.107856       -0.107855
     6 H        0.299916        0.000000       -0.042503       -0.042503
     7 O       -0.574221        0.000000        0.088555        0.088555
     8 H       -0.039439       -0.000000       -0.334507       -0.334508
     9 H        0.335226        0.000000       -0.019798       -0.019798
    10 O       -0.552145        0.000000        0.097787        0.097787
    11 H        0.050667        0.000000       -0.257964       -0.257964
    12 H        0.162827       -0.000001       -0.175293       -0.175294
    --------------------------------------------------------------------
    Sum:       -0.000000        1.000000       -1.000000       -0.000000
    
    Multipole moment analysis of the density matrix
      Molecular charge:                      -0.000000
      Number of electrons:                   40.000000
        Center of electronic charge [Ang]: [  0.016681,   0.017665,   0.026046]
      Total nuclear charge:                  40.000000
        Center of nuclear charge [Ang]:    [ -0.006486,  -0.036896,   0.003210]
      Dipole moment [D]:                     12.204421
        Cartesian components [D]:          [ -4.450951, -10.482727,  -4.387409]
      RMS size of the density [Ang]:         2.419658
        Cartesian components [Ang]:        [  0.790463,   1.683377,   1.547952]
    
    Exciton analysis of the difference density matrix
      <r_h> [Ang]:                  [ -1.109885,  -0.724992,  -1.208656]
      <r_e> [Ang]:                  [ -0.299815,   0.117915,  -0.169004]
      |<r_e - r_h>| [Ang]:            1.564475
      Hole size [Ang]:                0.122785
        Cartesian components [Ang]: [  0.070887,   0.070891,   0.070893]
      Electron size [Ang]:            3.069861
        Cartesian components [Ang]: [  1.429775,   2.096654,   1.727378]

  Singlet 4 :
  -------------------------
    NOs
      Occupation of frontier NOs:
         0.0000   1.0000   1.0000   2.0000
      Number of electrons: 40.000000
      Number of unpaired electrons: n_u =  2.00000, n_u,nl =  2.00000
      NO participation ratio (PR_NO):  2.000000
    
    NDOs
      Leading detachment eigenvalues:
        -1.0000  -0.0000
      Leading attachment eigenvalues:
         1.0000   0.0000
      Number of detached / attached electrons: p_D =  1.0000, p_A =  1.0000
      Number of involved orbitals: PR_D =  1.000000, PR_A =  1.000000
    
    Mulliken Population Analysis (State/Difference DM)
    Atom      Charge (e)              h+              e-           Del q
    --------------------------------------------------------------------
     1 O        0.321742        0.990957        0.013792        1.004749
     2 H        0.179042        0.004584       -0.106081       -0.101497
     3 H        0.388727        0.004458       -0.003786        0.000672
     4 O       -0.467531        0.000000        0.184117        0.184118
     5 H       -0.068408        0.000000       -0.407916       -0.407915
     6 H       -0.182160        0.000000       -0.524578       -0.524578
     7 O       -0.647197        0.000000        0.015579        0.015579
     8 H        0.112904       -0.000000       -0.182164       -0.182164
     9 H        0.372427        0.000000        0.017403        0.017404
    10 O       -0.650753        0.000000       -0.000821       -0.000821
    11 H        0.301401        0.000000       -0.007230       -0.007229
    12 H        0.339805       -0.000001        0.001685        0.001684
    --------------------------------------------------------------------
    Sum:        0.000000        1.000000       -1.000000        0.000000
    
    Multipole moment analysis of the density matrix
      Molecular charge:                      0.000000
      Number of electrons:                   40.000000
        Center of electronic charge [Ang]: [  0.030982,  -0.034993,   0.049393]
      Total nuclear charge:                  40.000000
        Center of nuclear charge [Ang]:    [ -0.006486,  -0.036896,   0.003210]
      Dipole moment [D]:                     11.431669
        Cartesian components [D]:          [ -7.198583,  -0.365617,  -8.872980]
      RMS size of the density [Ang]:         2.436906
        Cartesian components [Ang]:        [  0.810839,   1.700062,   1.546233]
    
    Exciton analysis of the difference density matrix
      <r_h> [Ang]:                  [ -1.109885,  -0.724992,  -1.208656]
      <r_e> [Ang]:                  [  0.272227,  -1.988410,   0.764866]
      |<r_e - r_h>| [Ang]:            2.720524
      Hole size [Ang]:                0.122785
        Cartesian components [Ang]: [  0.070887,   0.070891,   0.070893]
      Electron size [Ang]:            2.903154
        Cartesian components [Ang]: [  1.841860,   1.658523,   1.511675]

  Singlet 5 :
  -------------------------
    NOs
      Occupation of frontier NOs:
         0.0000   1.0000   1.0000   2.0000
      Number of electrons: 40.000000
      Number of unpaired electrons: n_u =  2.00000, n_u,nl =  2.00000
      NO participation ratio (PR_NO):  2.000000
    
    NDOs
      Leading detachment eigenvalues:
        -1.0000  -0.0000
      Leading attachment eigenvalues:
         1.0000   0.0000
      Number of detached / attached electrons: p_D =  1.0000, p_A =  1.0000
      Number of involved orbitals: PR_D =  1.000000, PR_A =  1.000000
    
    Mulliken Population Analysis (State/Difference DM)
    Atom      Charge (e)              h+              e-           Del q
    --------------------------------------------------------------------
     1 O        0.314691        0.990957        0.006741        0.997699
     2 H        0.218450        0.004584       -0.066673       -0.062090
     3 H        0.402920        0.004458        0.010407        0.014865
     4 O       -0.616040        0.000000        0.035608        0.035608
     5 H        0.195054        0.000000       -0.144454       -0.144454
     6 H        0.310853        0.000000       -0.031565       -0.031565
     7 O       -0.537203        0.000000        0.125573        0.125573
     8 H       -0.210101       -0.000000       -0.505169       -0.505169
     9 H        0.340422        0.000000       -0.014601       -0.014601
    10 O       -0.455204        0.000000        0.194728        0.194728
    11 H       -0.203179        0.000000       -0.511810       -0.511810
    12 H        0.239337       -0.000001       -0.098783       -0.098784
    --------------------------------------------------------------------
[...]
 172  H 2   d 4     -0.00162
 173  H 2   d 5     -0.00080
 174  H 2   d 1     -0.00768
 175  H 2   d 2     -0.00336
 176  H 2   d 3      0.00919
 177  H 2   d 4     -0.01391
 178  H 2   d 5     -0.01973
 179  H 2   f 1     -0.00007
 180  H 2   f 2      0.00015
 181  H 2   f 3      0.00017
 182  H 2   f 4      0.00001
 183  H 2   f 5      0.00014
 184  H 2   f 6     -0.00004
 185  H 2   f 7     -0.00002
 186  H 2   f 1      0.00154
 187  H 2   f 2      0.00221
 188  H 2   f 3      0.00164
 189  H 2   f 4     -0.00237
 190  H 2   f 5     -0.00092
 191  H 2   f 6      0.00339
 192  H 2   f 7      0.00213
 193  H 2   g 1     -0.00007
 194  H 2   g 2     -0.00012
 195  H 2   g 3     -0.00017
 196  H 2   g 4     -0.00008
 197  H 2   g 5      0.00011
 198  H 2   g 6      0.00016
 199  H 2   g 7     -0.00016
 200  H 2   g 8     -0.00021
 201  H 2   g 9     -0.00007
 202  O 2   s       -0.00022
 203  O 2   s        0.00516
 204  O 2   s        0.00121
 205  O 2   s        0.00247
 206  O 2   s       -0.12535
 207  O 2   s        0.33904
 208  O 2   px      -0.01923
 209  O 2   py      -0.01718
 210  O 2   pz      -0.00316
 211  O 2   px      -0.02919
 212  O 2   py      -0.02554
 213  O 2   pz      -0.00491
 214  O 2   px      -0.07945
 215  O 2   py      -0.04047
 216  O 2   pz      -0.01734
 217  O 2   px      -0.18751
 218  O 2   py      -0.11253
 219  O 2   pz       0.00317
 220  O 2   px      -0.65834
 221  O 2   py      -0.05198
 222  O 2   pz      -0.07346
 223  O 2   d 1     -0.00028
 224  O 2   d 2      0.00000
 225  O 2   d 3     -0.00013
 226  O 2   d 4      0.00009
 227  O 2   d 5      0.00016
 228  O 2   d 1     -0.00145
 229  O 2   d 2      0.00068
 230  O 2   d 3      0.00111
 231  O 2   d 4      0.00053
 232  O 2   d 5     -0.00099
 233  O 2   d 1      0.01070
 234  O 2   d 2      0.00031
 235  O 2   d 3     -0.00080
 236  O 2   d 4     -0.00665
 237  O 2   d 5     -0.00421
 238  O 2   d 1      0.04046
 239  O 2   d 2     -0.00573
 240  O 2   d 3     -0.03002
 241  O 2   d 4     -0.00762
 242  O 2   d 5     -0.02632
 243  O 2   f 1     -0.00015
 244  O 2   f 2     -0.00007
 245  O 2   f 3      0.00013
 246  O 2   f 4     -0.00004
 247  O 2   f 5      0.00002
 248  O 2   f 6     -0.00018
 249  O 2   f 7     -0.00010
 250  O 2   f 1      0.00129
 251  O 2   f 2      0.00076
 252  O 2   f 3     -0.00060
 253  O 2   f 4      0.00065
 254  O 2   f 5      0.00061
 255  O 2   f 6      0.00033
 256  O 2   f 7      0.00011
 257  O 2   f 1     -0.01002
 258  O 2   f 2      0.00519
 259  O 2   f 3      0.01043
 260  O 2   f 4     -0.00600
 261  O 2   f 5      0.00073
 262  O 2   f 6     -0.00444
 263  O 2   f 7      0.01354
 264  O 2   g 1      0.00026
 265  O 2   g 2      0.00015
 266  O 2   g 3      0.00001
 267  O 2   g 4     -0.00009
 268  O 2   g 5     -0.00001
 269  O 2   g 6      0.00009
 270  O 2   g 7      0.00010
 271  O 2   g 8     -0.00007
 272  O 2   g 9      0.00000
 273  O 2   g 1     -0.00199
 274  O 2   g 2     -0.00096
 275  O 2   g 3     -0.00057
 276  O 2   g 4      0.00087
 277  O 2   g 5      0.00078
 278  O 2   g 6      0.00010
 279  O 2   g 7     -0.00049
 280  O 2   g 8      0.00087
 281  O 2   g 9     -0.00130
 282  O 2   h 1      0.00009
 283  O 2   h 2     -0.00011
 284  O 2   h 3      0.00015
 285  O 2   h 4     -0.00008
 286  O 2   h 5     -0.00014
 287  O 2   h 6      0.00017
 288  O 2   h 7      0.00006
 289  O 2   h 8     -0.00002
 290  O 2   h 9     -0.00015
 291  O 2   h10     -0.00005
 292  O 2   h11      0.00003
 293  H 3   s       -0.00625
 294  H 3   s       -0.01083
 295  H 3   s       -0.18033
 296  H 3   s       -0.54705
 297  H 3   s       -0.77514
 298  H 3   px       0.00081
 299  H 3   py       0.00109
 300  H 3   pz      -0.00039
 301  H 3   px       0.00071
 302  H 3   py      -0.00108
 303  H 3   pz       0.00046
 304  H 3   px      -0.03304
 305  H 3   py      -0.00443
 306  H 3   pz      -0.00475
 307  H 3   px      -0.08735
 308  H 3   py      -0.08013
 309  H 3   pz       0.01052
 310  H 3   d 1      0.00009
 311  H 3   d 2     -0.00001
 312  H 3   d 3     -0.00001
 313  H 3   d 4      0.00004
 314  H 3   d 5      0.00035
 315  H 3   d 1     -0.00363
 316  H 3   d 2     -0.00012
 317  H 3   d 3      0.00197
 318  H 3   d 4     -0.00017
 319  H 3   d 5     -0.00339
 320  H 3   d 1     -0.00435
 321  H 3   d 2     -0.00251
 322  H 3   d 3      0.00629
 323  H 3   d 4     -0.00224
 324  H 3   d 5     -0.01201
 325  H 3   f 1     -0.00052
 326  H 3   f 2     -0.00003
 327  H 3   f 3      0.00023
 328  H 3   f 4     -0.00017
 329  H 3   f 5      0.00032
 330  H 3   f 6     -0.00006
 331  H 3   f 7      0.00017
 332  H 3   f 1     -0.00114
 333  H 3   f 2     -0.00078
 334  H 3   f 3     -0.00044
 335  H 3   f 4      0.00136
 336  H 3   f 5      0.00069
 337  H 3   f 6      0.00048
 338  H 3   f 7     -0.00242
 339  H 3   g 1     -0.00023
 340  H 3   g 2     -0.00005
 341  H 3   g 3      0.00008
 342  H 3   g 4      0.00006
 343  H 3   g 5     -0.00008
 344  H 3   g 6      0.00002
 345  H 3   g 7      0.00008
 346  H 3   g 8      0.00008
 347  H 3   g 9     -0.00001
 348  H 4   s        0.00317
 349  H 4   s       -0.00413
 350  H 4   s        0.03856
 351  H 4   s        0.57561
 352  H 4   s        0.50575
 353  H 4   px      -0.00025
 354  H 4   py      -0.00014
 355  H 4   pz      -0.00009
 356  H 4   px       0.00588
 357  H 4   py      -0.00318
 358  H 4   pz       0.00210
 359  H 4   px      -0.03351
 360  H 4   py       0.00780
 361  H 4   pz      -0.00398
 362  H 4   px      -0.12080
 363  H 4   py       0.09176
 364  H 4   pz      -0.04800
 365  H 4   d 1      0.00039
 366  H 4   d 2      0.00009
 367  H 4   d 3      0.00047
 368  H 4   d 4     -0.00001
 369  H 4   d 5     -0.00050
 370  H 4   d 1     -0.00126
 371  H 4   d 2      0.00037
 372  H 4   d 3     -0.00266
 373  H 4   d 4     -0.00007
 374  H 4   d 5      0.00369
 375  H 4   d 1     -0.03136
 376  H 4   d 2     -0.00730
 377  H 4   d 3     -0.01483
 378  H 4   d 4      0.01832
 379  H 4   d 5      0.02129
 380  H 4   f 1     -0.00036
 381  H 4   f 2     -0.00024
 382  H 4   f 3      0.00002
 383  H 4   f 4     -0.00011
 384  H 4   f 5     -0.00001
 385  H 4   f 6      0.00009
 386  H 4   f 7     -0.00007
 387  H 4   f 1      0.00715
 388  H 4   f 2      0.00305
 389  H 4   f 3     -0.00187
 390  H 4   f 4      0.00312
 391  H 4   f 5      0.00328
 392  H 4   f 6     -0.00280
 393  H 4   f 7     -0.00203
 394  H 4   g 1     -0.00037
 395  H 4   g 2     -0.00020
 396  H 4   g 3      0.00018
 397  H 4   g 4      0.00015
 398  H 4   g 5      0.00008
 399  H 4   g 6     -0.00029
 400  H 4   g 7     -0.00008
 401  H 4   g 8      0.00011
 402  H 4   g 9      0.00000
 403  O 3   s        0.00215
 404  O 3   s       -0.03997
 405  O 3   s        0.00047
 406  O 3   s       -0.02430
 407  O 3   s       -0.18282
 408  O 3   s       -0.69762
 409  O 3   px       0.02746
 410  O 3   py      -0.00183
 411  O 3   pz      -0.00339
 412  O 3   px       0.04114
 413  O 3   py      -0.00220
 414  O 3   pz      -0.00901
 415  O 3   px       0.09215
 416  O 3   py      -0.01485
 417  O 3   pz       0.00215
 418  O 3   px       0.18027
 419  O 3   py       0.11734
 420  O 3   pz       0.11934
 421  O 3   px       0.09721
 422  O 3   py      -0.15672
 423  O 3   pz      -0.01335
 424  O 3   d 1     -0.00008
 425  O 3   d 2     -0.00044
 426  O 3   d 3      0.00017
 427  O 3   d 4     -0.00032
 428  O 3   d 5      0.00012
 429  O 3   d 1     -0.00096
 430  O 3   d 2      0.00287
 431  O 3   d 3     -0.00167
 432  O 3   d 4      0.00207
 433  O 3   d 5     -0.00089
 434  O 3   d 1      0.00881
 435  O 3   d 2     -0.01149
 436  O 3   d 3      0.01264
 437  O 3   d 4     -0.01497
 438  O 3   d 5     -0.00338
 439  O 3   d 1      0.02403
 440  O 3   d 2     -0.01659
 441  O 3   d 3      0.01448
 442  O 3   d 4     -0.01795
 443  O 3   d 5     -0.00428
 444  O 3   f 1      0.00036
 445  O 3   f 2      0.00008
 446  O 3   f 3      0.00010
 447  O 3   f 4      0.00031
 448  O 3   f 5      0.00009
 449  O 3   f 6      0.00018
 450  O 3   f 7     -0.00018
 451  O 3   f 1     -0.00338
 452  O 3   f 2     -0.00063
 453  O 3   f 3     -0.00008
 454  O 3   f 4     -0.00228
 455  O 3   f 5     -0.00129
 456  O 3   f 6     -0.00057
 457  O 3   f 7      0.00098
 458  O 3   f 1     -0.02079
 459  O 3   f 2     -0.00887
 460  O 3   f 3      0.00246
 461  O 3   f 4     -0.01545
 462  O 3   f 5     -0.00583
 463  O 3   f 6     -0.00490
 464  O 3   f 7      0.00987
 465  O 3   g 1      0.00010
 466  O 3   g 2     -0.00006
 467  O 3   g 3     -0.00020
 468  O 3   g 4     -0.00012
 469  O 3   g 5     -0.00009
 470  O 3   g 6      0.00003
 471  O 3   g 7     -0.00002
 472  O 3   g 8      0.00011
 473  O 3   g 9      0.00026
 474  O 3   g 1      0.00305
 475  O 3   g 2      0.00416
 476  O 3   g 3      0.00056
 477  O 3   g 4      0.00113
 478  O 3   g 5      0.00081
 479  O 3   g 6      0.00196
 480  O 3   g 7      0.00186
 481  O 3   g 8     -0.00074
 482  O 3   g 9     -0.00299
 483  O 3   h 1     -0.00033
 484  O 3   h 2     -0.00042
 485  O 3   h 3     -0.00016
 486  O 3   h 4      0.00012
 487  O 3   h 5     -0.00020
 488  O 3   h 6      0.00027
 489  O 3   h 7     -0.00000
 490  O 3   h 8     -0.00008
 491  O 3   h 9     -0.00015
 492  O 3   h10      0.00030
 493  O 3   h11      0.00006
 494  H 5   s        0.00462
 495  H 5   s       -0.00209
 496  H 5   s        0.26139
 497  H 5   s       -0.00428
 498  H 5   s        1.02752
 499  H 5   px      -0.00250
 500  H 5   py       0.00126
 501  H 5   pz      -0.00055
 502  H 5   px       0.00505
 503  H 5   py      -0.00081
 504  H 5   pz       0.00137
 505  H 5   px       0.02549
 506  H 5   py      -0.04031
 507  H 5   pz      -0.00352
 508  H 5   px       0.03277
 509  H 5   py      -0.03970
 510  H 5   pz      -0.00783
 511  H 5   d 1      0.00076
 512  H 5   d 2      0.00040
 513  H 5   d 3      0.00033
 514  H 5   d 4     -0.00011
 515  H 5   d 5      0.00017
 516  H 5   d 1     -0.01125
 517  H 5   d 2     -0.00280
 518  H 5   d 3     -0.00593
 519  H 5   d 4      0.00115
 520  H 5   d 5      0.00077
 521  H 5   d 1     -0.01408
 522  H 5   d 2      0.00534
 523  H 5   d 3     -0.00784
 524  H 5   d 4     -0.01247
 525  H 5   d 5     -0.00970
 526  H 5   f 1     -0.00086
 527  H 5   f 2     -0.00025
 528  H 5   f 3      0.00041
 529  H 5   f 4     -0.00034
 530  H 5   f 5     -0.00052
 531  H 5   f 6      0.00027
 532  H 5   f 7     -0.00044
 533  H 5   f 1     -0.00216
 534  H 5   f 2      0.00001
 535  H 5   f 3      0.00181
 536  H 5   f 4      0.00176
 537  H 5   f 5     -0.00194
 538  H 5   f 6     -0.00351
 539  H 5   f 7     -0.00397
 540  H 5   g 1     -0.00004
 541  H 5   g 2      0.00008
 542  H 5   g 3      0.00031
 543  H 5   g 4      0.00007
 544  H 5   g 5      0.00021
 545  H 5   g 6      0.00006
 546  H 5   g 7     -0.00004
 547  H 5   g 8     -0.00023
 548  H 5   g 9     -0.00051
 549  H 6   s        0.00284
 550  H 6   s       -0.00062
 551  H 6   s        0.20779
 552  H 6   s        0.00152
 553  H 6   s       -0.02906
 554  H 6   px      -0.00024
 555  H 6   py      -0.00133
 556  H 6   pz      -0.00050
 557  H 6   px       0.00088
 558  H 6   py       0.00457
 559  H 6   pz       0.00109
 560  H 6   px       0.01678
 561  H 6   py       0.02389
 562  H 6   pz       0.02835
 563  H 6   px       0.04677
 564  H 6   py       0.09084
 565  H 6   pz       0.05496
 566  H 6   d 1     -0.00013
 567  H 6   d 2     -0.00080
 568  H 6   d 3     -0.00017
 569  H 6   d 4     -0.00001
 570  H 6   d 5      0.00038
 571  H 6   d 1      0.00385
 572  H 6   d 2      0.00967
 573  H 6   d 3      0.00063
 574  H 6   d 4      0.00273
 575  H 6   d 5     -0.00505
 576  H 6   d 1      0.01146
 577  H 6   d 2     -0.00917
 578  H 6   d 3      0.00109
 579  H 6   d 4      0.01141
 580  H 6   d 5      0.01530
 581  H 6   f 1     -0.00035
 582  H 6   f 2      0.00040
 583  H 6   f 3      0.00027
 584  H 6   f 4     -0.00026
 585  H 6   f 5      0.00015
 586  H 6   f 6     -0.00064
 587  H 6   f 7     -0.00030
 588  H 6   f 1      0.00257
 589  H 6   f 2      0.00235
 590  H 6   f 3      0.00169
 591  H 6   f 4     -0.00008
 592  H 6   f 5      0.00031
 593  H 6   f 6      0.00086
 594  H 6   f 7     -0.00197
 595  H 6   g 1     -0.00016
 596  H 6   g 2      0.00008
 597  H 6   g 3      0.00010
 598  H 6   g 4      0.00011
 599  H 6   g 5     -0.00009
 600  H 6   g 6     -0.00000
 601  H 6   g 7     -0.00016
 602  H 6   g 8     -0.00029
 603  H 6   g 9     -0.00017
 604  O 4   s       -0.00228
 605  O 4   s        0.06705
 606  O 4   s        0.00287
 607  O 4   s        0.03346
 608  O 4   s        0.26886
 609  O 4   s        1.28370
 610  O 4   px       0.01553
 611  O 4   py      -0.02025
 612  O 4   pz       0.00923
 613  O 4   px       0.02294
 614  O 4   py      -0.02617
 615  O 4   pz       0.00896
 616  O 4   px       0.05921
 617  O 4   py      -0.06876
 618  O 4   pz       0.04337
 619  O 4   px       0.09279
 620  O 4   py      -0.32282
 621  O 4   pz       0.18230
 622  O 4   px       0.21345
 623  O 4   py      -0.15604
 624  O 4   pz       0.17322
 625  O 4   d 1      0.00016
 626  O 4   d 2     -0.00035
 627  O 4   d 3     -0.00037
 628  O 4   d 4      0.00028
 629  O 4   d 5      0.00004
 630  O 4   d 1     -0.00020
 631  O 4   d 2      0.00236
 632  O 4   d 3      0.00308
 633  O 4   d 4     -0.00345
 634  O 4   d 5     -0.00254
 635  O 4   d 1     -0.00932
 636  O 4   d 2     -0.02027
 637  O 4   d 3     -0.01295
 638  O 4   d 4      0.02327
 639  O 4   d 5      0.00783
 640  O 4   d 1     -0.03178
 641  O 4   d 2     -0.07474
 642  O 4   d 3     -0.03621
 643  O 4   d 4      0.07794
 644  O 4   d 5      0.02735
 645  O 4   f 1      0.00028
 646  O 4   f 2      0.00032
 647  O 4   f 3     -0.00001
 648  O 4   f 4      0.00000
 649  O 4   f 5     -0.00012
 650  O 4   f 6     -0.00008
 651  O 4   f 7      0.00024
 652  O 4   f 1     -0.00208
 653  O 4   f 2     -0.00283
 654  O 4   f 3     -0.00010
 655  O 4   f 4     -0.00093
 656  O 4   f 5      0.00068
 657  O 4   f 6      0.00069
 658  O 4   f 7     -0.00119
 659  O 4   f 1     -0.03232
 660  O 4   f 2     -0.03039
 661  O 4   f 3      0.00068
 662  O 4   f 4     -0.01643
 663  O 4   f 5      0.01945
 664  O 4   f 6     -0.00116
 665  O 4   f 7     -0.01053
 666  O 4   g 1     -0.00024
 667  O 4   g 2     -0.00013
 668  O 4   g 3      0.00018
 669  O 4   g 4     -0.00003
 670  O 4   g 5     -0.00002
 671  O 4   g 6      0.00002
 672  O 4   g 7      0.00015
 673  O 4   g 8      0.00011
 674  O 4   g 9      0.00007
 675  O 4   g 1      0.00208
 676  O 4   g 2     -0.00232
 677  O 4   g 3     -0.00420
 678  O 4   g 4      0.00139
 679  O 4   g 5     -0.00074
 680  O 4   g 6     -0.00178
 681  O 4   g 7     -0.00103
 682  O 4   g 8     -0.00278
 683  O 4   g 9     -0.00370
 684  O 4   h 1     -0.00000
 685  O 4   h 2     -0.00013
 686  O 4   h 3     -0.00007
 687  O 4   h 4      0.00019
 688  O 4   h 5      0.00019
 689  O 4   h 6     -0.00003
 690  O 4   h 7     -0.00047
 691  O 4   h 8      0.00005
 692  O 4   h 9     -0.00024
 693  O 4   h10     -0.00046
 694  O 4   h11      0.00003
 695  H 7   s       -0.00835
 696  H 7   s        0.00290
 697  H 7   s       -0.49341
 698  H 7   s       -0.35280
 699  H 7   s       -1.13619
 700  H 7   px      -0.00211
 701  H 7   py       0.00189
 702  H 7   pz      -0.00170
 703  H 7   px       0.00039
 704  H 7   py      -0.00447
 705  H 7   pz       0.00291
 706  H 7   px       0.08970
 707  H 7   py      -0.03709
 708  H 7   pz       0.04669
 709  H 7   px       0.12387
 710  H 7   py      -0.08861
 711  H 7   pz       0.08334
 712  H 7   d 1     -0.00049
 713  H 7   d 2     -0.00013
 714  H 7   d 3     -0.00010
 715  H 7   d 4      0.00079
 716  H 7   d 5      0.00046
 717  H 7   d 1      0.01064
 718  H 7   d 2      0.00588
 719  H 7   d 3      0.00279
 720  H 7   d 4     -0.01243
 721  H 7   d 5     -0.00666
 722  H 7   d 1      0.00921
 723  H 7   d 2     -0.00040
 724  H 7   d 3      0.00978
 725  H 7   d 4     -0.01067
 726  H 7   d 5     -0.01934
 727  H 7   f 1     -0.00102
 728  H 7   f 2     -0.00151
 729  H 7   f 3     -0.00017
 730  H 7   f 4     -0.00112
 731  H 7   f 5      0.00016
 732  H 7   f 6      0.00070
 733  H 7   f 7     -0.00005
 734  H 7   f 1     -0.00220
 735  H 7   f 2      0.00080
 736  H 7   f 3      0.00095
 737  H 7   f 4      0.00012
 738  H 7   f 5     -0.00107
 739  H 7   f 6      0.00258
 740  H 7   f 7      0.00210
 741  H 7   g 1      0.00031
 742  H 7   g 2      0.00034
 743  H 7   g 3     -0.00000
 744  H 7   g 4     -0.00010
 745  H 7   g 5      0.00007
 746  H 7   g 6      0.00028
 747  H 7   g 7     -0.00006
 748  H 7   g 8     -0.00016
 749  H 7   g 9     -0.00002
 750  H 8   s       -0.00561
 751  H 8   s       -0.01078
 752  H 8   s       -0.23344
 753  H 8   s       -0.13651
 754  H 8   s       -0.05108
 755  H 8   px       0.00091
 756  H 8   py       0.00063
 757  H 8   pz      -0.00005
 758  H 8   px      -0.00085
 759  H 8   py      -0.00291
 760  H 8   pz       0.00109
 761  H 8   px      -0.04044
 762  H 8   py      -0.03443
 763  H 8   pz       0.00795
 764  H 8   px      -0.03666
 765  H 8   py      -0.02300
 766  H 8   pz       0.00638
 767  H 8   d 1      0.00009
 768  H 8   d 2      0.00006
 769  H 8   d 3      0.00021
 770  H 8   d 4     -0.00035
 771  H 8   d 5     -0.00010
 772  H 8   d 1     -0.00666
 773  H 8   d 2      0.00050
 774  H 8   d 3      0.00254
 775  H 8   d 4      0.00289
 776  H 8   d 5     -0.00033
 777  H 8   d 1      0.00547
 778  H 8   d 2      0.00819
 779  H 8   d 3      0.00144
 780  H 8   d 4     -0.00255
 781  H 8   d 5      0.00362
 782  H 8   f 1     -0.00114
 783  H 8   f 2      0.00005
 784  H 8   f 3      0.00050
 785  H 8   f 4     -0.00012
 786  H 8   f 5      0.00070
 787  H 8   f 6      0.00018
 788  H 8   f 7      0.00027
 789  H 8   f 1      0.00435
 790  H 8   f 2      0.00195
 791  H 8   f 3     -0.00132
 792  H 8   f 4     -0.00031
 793  H 8   f 5     -0.00272
 794  H 8   f 6     -0.00038
 795  H 8   f 7      0.00068
 796  H 8   g 1      0.00015
 797  H 8   g 2      0.00019
 798  H 8   g 3     -0.00004
 799  H 8   g 4     -0.00002
 800  H 8   g 5      0.00002
 801  H 8   g 6     -0.00005
 802  H 8   g 7     -0.00010
 803  H 8   g 8     -0.00007
 804  H 8   g 9      0.00004

 -----------------------------------------------------------------
                    Cartesian Multipole Moments
 -----------------------------------------------------------------
    Charge (ESU x 10^10)
                -0.0000
    Dipole Moment (Debye)
         X      -0.5600      Y      -6.4341      Z       0.6063
       Tot       6.4868
    Quadrupole Moments (Debye-Ang)
        XX     -24.3030     XY      -2.5054     YY     -22.3643
        XZ      -0.8534     YZ       2.2608     ZZ     -35.1655
    Octopole Moments (Debye-Ang^2)
       XXX       6.8788    XXY      -5.7482    XYY      -2.2952
       YYY     -59.3176    XXZ      -2.2013    XYZ      -6.7356
       YYZ      21.5769    XZZ     -13.0951    YZZ     -19.0285
       ZZZ     -13.8180
    Hexadecapole Moments (Debye-Ang^3)
      XXXX     -93.7278   XXXY     -18.6614   XXYY     -61.9542
      XYYY     -18.8536   YYYY    -440.3912   XXXZ     -43.4504
      XXYZ      12.2512   XYYZ       1.7506   YYYZ      85.8214
      XXZZ     -73.3768   XYZZ     -11.9247   YYZZ    -147.4642
      XZZZ     -48.9771   YZZZ      86.9864   ZZZZ    -453.4996
 -----------------------------------------------------------------
 Total job time:  121636.04s(wall), 241869.66s(cpu) 
 Wed Jan  1 00:24:32 2025

        *************************************************************
        *                                                           *
        *  Thank you very much for using Q-Chem.  Have a nice day.  *
        *                                                           *
        *************************************************************


