                  Welcome to Q-Chem
     A Quantum Leap Into The Future Of Chemistry


 Q-Chem 6.2 (devel), Q-Chem, Inc., Pleasanton, CA (2024)

 E. Epifanovsky,  A. T. B. Gilbert,  Xintian Feng,  Joonho Lee,  Yuezhi Mao,  
 N. Mardirossian,  P. Pokhilko,  A. White,  M. Wormit,  M. P. Coons,  
 A. L. Dempwolff,  Zhengting Gan,  D. Hait,  P. R. Horn,  L. D. Jacobson,  
 I. Kaliman,  J. Kussmann,  A. W. Lange,  Ka Un Lao,  D. S. Levine,  Jie Liu,  
 S. C. McKenzie,  A. F. Morrison,  K. D. Nanda,  F. Plasser,  D. R. Rehn,  
 M. L. Vidal,  Zhi-Qiang You,  Ying Zhu,  Huseyin Aksu,  B. Alam,  
 B. Albrecht,  A. Aldossary,  E. Alguire,  J. H. Andersen,  
 J. E. Arias-Martinez,  V. Athavale,  D. Barton,  K. Begam,  A. Behn,  
 N. Bellonzi,  Y. A. Bernard,  E. J. Berquist,  H. Burton,  A. Carreras,  
 K. Carter-Fenk,  Mathew Chow,  Romit Chakraborty,  Chandrima Chakravarty,  
 Junhan Chen,  A. D. Chien,  K. D. Closser,  V. Cofer-Shabica,  L. Cunha,  
 S. Dasgupta,  Jia Deng,  Joseph Dickinson,  M. de Wergifosse,  
 M. Diedenhofen,  Hainam Do,  Wenjie Dou,  S. Ehlert,  Po-Tung Fang,  
 S. Fatehi,  Qingguo Feng,  Jonathan Fetherolf,  T. Friedhoff,  
 Thomas Froitzheim,  Sarai Folkestad,  B. Ganoe,  J. Gayvert,  Qinghui Ge,  
 G. Gidofalvi,  M. Gimferrer,  M. Goldey,  Montgomery Gray,  J. Gomes,  
 C. Gonzalez-Espinoza,  S. Gulania,  A. Gunina,  J. A. Gyamfi,  
 M. W. D. Hanson-Heine,  P. H. P. Harbach,  A. W. Hauser,  M. F. Herbst,  
 M. Hernandez Vera,  M. Hodecker,  Z. C. Holden,  S. Houck,  Xunkun Huang,  
 Kerwin Hui,  B. C. Huynh,  K. Ikeda,  M. Ivanov,  Nayanthara K. Jayadev,  
 Hyunjun Ji,  Zuxin Jin,  Hanjie Jiang,  Subrata Jana,  B. Kaduk,  
 S. Kaehler,  R. Kang,  K. Khistyaev,  Jaehoon Kim,  Yongbin Kim,  
 P. Klunzinger,  Z. Koczor-Benda,  Joong Hoon Koh,  D. Kosenkov,  
 Saikiran Kotaru,  L. Koulias,  T. Kowalczyk,  C. M. Krauter,  K. Kue,  
 A. Kunitsa,  T. Kus,  A. Landau,  K. V. Lawler,  D. Lefrancois,  S. Lehtola,  
 Rain Li,  Shaozhi Li,  Tao E. Li,  Yi-Pei Li,  Jiashu Liang,  M. Liebenthal,  
 Hung-Hsuan Lin,  You-Sheng Lin,  Fenglai Liu,  Kuan-Yu Liu,  Xiao Liu,  
 M. Loipersberger,  A. Luenser,  C. Malbon,  Aniket Mandal,  Manisha,  
 A. Manjanath,  P. Manohar,  E. Mansoor,  S. F. Manzer,  Shan-Ping Mao,  
 A. V. Marenich,  T. Markovich,  S. Mason,  F. Matz,  S. A. Maurer,  
 Samuel May,  Alexandra McIsaac,  P. F. McLaughlin,  M. F. S. J. Menger,  
 J.-M. Mewes,  S. A. Mewes,  P. Morgante,  Mohammad Mostafanejad,  
 Madhubani Mukherjee,  J. W. Mullinax,  Quyen Nguyen,  Avik Kumar Ojha,  
 K. J. Oosterbaan,  Eno Paenurk,  Xiaoliang Pan,  G. Paran,  V. Parravicini,  
 Alexander C. Paul,  Suranjan K. Paul,  F. Pavosevic,  Zheng Pei,  S. Prager,  
 E. I. Proynov,  E. Ramos,  B. Rana,  A. E. Rask,  A. Rettig,  R. M. Richard,  
 F. Rob,  E. Rossomme,  T. Scheele,  M. Scheurer,  M. Schneider,  
 P. E. Schneider,  Tim K. Schramm,  N. Sergueev,  S. M. Sharada,  
 Hengyuan Shen,  W. Skomorowski,  D. W. Small,  C. J. Stein,  
 Alistair J. Sterling,  Yingli Su,  Yu-Chuan Su,  E. J. Sundstrom,  
 J. Talbot,  Zhen Tao,  J. Thirman,  Hung-Yi Tsai,  T. Tsuchimochi,  
 N. M. Tubman,  C. Utku,  S. P. Veccham,  O. Vydrov,  Rahel Weiss,  
 J. Wenzel,  Jonathan Wong,  J. Witte,  H. Wu,  Yanze Wu,  A. Yamada,  
 Chou-Hsun Yang,  Kun Yao,  S. Yeganeh,  S. R. Yost,  Qi Yu,  A. Zech,  
 F. Zeller,  Chongxiao Zhao,  Igor Ying Zhang,  Xing Zhang,  Yu Zhang,  
 D. Zuev,  A. Aspuru-Guzik,  A. T. Bell,  N. A. Besley,  K. B. Bravaya,  
 B. R. Brooks,  D. Casanova,  Jeng-Da Chai,  Hsing-Ta Chen,  S. Coriani,  
 C. J. Cramer,  A. E. DePrince, III,  R. A. DiStasio Jr.,  A. Dreuw,  
 B. D. Dunietz,  T. R. Furlani,  W. A. Goddard III,  S. Grimme,  
 S. Hammes-Schiffer,  T. Head-Gordon,  W. J. Hehre,  Chao-Ping Hsu,  
 T.-C. Jagau,  Yousung Jung,  A. Klamt,  Jing Kong,  D. S. Lambrecht,  
 Xiangyuan Li,  WanZhen Liang,  N. J. Mayhall,  C. W. McCurdy,  J. B. Neaton,  
 T. Neudecker,  C. Ochsenfeld,  J. A. Parkhill,  R. Peverati,  
 V. A. Rassolov,  Haisheng Ren,  Yihan Shao,  L. V. Slipchenko,  
 R. P. Steele,  J. E. Subotnik,  A. J. W. Thom,  A. Tkatchenko,  
 D. G. Truhlar,  T. Van Voorhis,  Fan Wang,  T. A. Wesolowski,  K. B. Whaley,  
 H. L. Woodcock III,  P. M. Zimmerman,  S. Faraji,  P. M. W. Gill,  
 M. Head-Gordon,  J. M. Herbert,  A. I. Krylov

 Contributors to earlier versions of Q-Chem not listed above: 
 R. D. Adamson,  B. Austin,  R. Baer,  J. Baker,  G. J. O. Beran,  
 K. Brandhorst,  S. T. Brown,  E. F. C. Byrd,  Arup K. Chakraborty,  
 G. K. L. Chan,  Chun-Min Chang,  Yunqing Chen,  C.-L. Cheng,  
 Siu Hung Chien,  D. M. Chipman,  D. L. Crittenden,  H. Dachsel,  
 R. J. Doerksen,  A. D. Dutoi,  R. G. Edgar,  J. Fosso-Tande,  
 L. Fusti-Molnar,  D. Ghosh,  A. Ghysels,  A. Golubeva-Zadorozhnaya,  
 J. Gonthier,  M. S. Gordon,  S. R. Gwaltney,  G. Hawkins,  J. E. Herr,  
 A. Heyden,  S. Hirata,  E. G. Hohenstein,  G. Kedziora,  F. J. Keil,  
 C. Kelley,  Jihan Kim,  R. A. King,  R. Z. Khaliullin,  P. P. Korambath,  
 W. Kurlancheek,  A. Laurent,  A. M. Lee,  M. S. Lee,  S. V. Levchenko,  
 Ching Yeh Lin,  D. Liotard,  E. Livshits,  R. C. Lochan,  I. Lotan,  
 L. A. Martinez-Martinez,  P. E. Maslen,  N. Nair,  D. P. O'Neill,  
 D. Neuhauser,  E. Neuscamman,  C. M. Oana,  R. Olivares-Amaya,  R. Olson,  
 T. M. Perrine,  B. Peters,  P. A. Pieniazek,  A. Prociuk,  Y. M. Rhee,  
 J. Ritchie,  M. A. Rohrdanz,  E. Rosta,  N. J. Russ,  H. F. Schaefer III,  
 M. W. Schmidt,  N. E. Schultz,  S. Sharma,  N. Shenvi,  C. D. Sherrill,  
 A. C. Simmonett,  A. Sodt,  T. Stein,  D. Stuck,  K. S. Thanthiriwatte,  
 V. Vanovschi,  L. Vogt,  Tao Wang,  A. Warshel,  M. A. Watson,  
 C. F. Williams,  Q. Wu,  X. Xu,  Jun Yang,  W. Zhang,  Yan Zhao

   Please cite Q-Chem as follows:
  "Software for the frontiers of quantum chemistry:
   An overview of developments in the Q-Chem 5 package"
   J. Chem. Phys. 155, 084801 (2021)
   https://doi.org/10.1063/5.0055522 (open access)

 Q-Chem 6.2.2 for Intel X86 EM64T Linux

 Parts of Q-Chem use Armadillo 9.900.5 (Nocturnal Misbehaviour).
 http://arma.sourceforge.net/

 Q-Chem begins on Tue Jan 14 14:54:54 2025  

 Host: compute-0-8.local
0

     Scratch files written to /scratch/keith/A0D1_2//
 Processing $rem in /home/keith/software/qchem/qchem_622/config/preferences:
 Processing $rem in /home/keith/.qchemrc:

 Checking the input file for inconsistencies... 	...done.

--------------------------------------------------------------
User input:
--------------------------------------------------------------
$molecule
0 1
O 0.25621 0.02105 -1.68712
H 0.60051 0.51475 -2.47152
H 0.23721 0.68085 -0.97742
O 1.39241 1.74125 0.55238
H 1.10151 2.54935 0.95838
H 2.36331 1.68175 0.62238
O -1.95429 -1.14325 -0.48682
H -1.55559 -0.91215 -1.33052
H -1.25389 -1.24435 0.16438
O 0.12411 -0.73735 1.60338
H 0.69001 -0.07285 1.19638
H 0.69901 -1.31945 2.12638
$end

$rem
method                    b3lyp 
basis                     cc-pv5z 
mem_total                 48000
mem_static                8000
thresh                    12
scf_convergence           8
xc_grid                   000075000302
max_scf_cycles            2000
symmetry                  false
sym_ignore                true
print_orbitals true
$end
gui                       2
molden_format true
--------------------------------------------------------------
 ----------------------------------------------------------------
             Standard Nuclear Orientation (Angstroms)
    I     Atom           X                Y                Z
 ----------------------------------------------------------------
    1      O       0.2562100000     0.0210500000    -1.6871200000
    2      H       0.6005100000     0.5147500000    -2.4715200000
    3      H       0.2372100000     0.6808500000    -0.9774200000
    4      O       1.3924100000     1.7412500000     0.5523800000
    5      H       1.1015100000     2.5493500000     0.9583800000
    6      H       2.3633100000     1.6817500000     0.6223800000
    7      O      -1.9542900000    -1.1432500000    -0.4868200000
    8      H      -1.5555900000    -0.9121500000    -1.3305200000
    9      H      -1.2538900000    -1.2443500000     0.1643800000
   10      O       0.1241100000    -0.7373500000     1.6033800000
   11      H       0.6900100000    -0.0728500000     1.1963800000
   12      H       0.6990100000    -1.3194500000     2.1263800000
 ----------------------------------------------------------------
 Nuclear Repulsion Energy =         135.55345985 hartrees
 There are       20 alpha and       20 beta electrons
 Requested basis set is cc-pV5Z
 There are 204 shells and 804 basis functions

 Total QAlloc Memory Limit  48000 MB
 Mega-Array Size      7821 MB
 MEM_STATIC part      8000 MB


                       Distance Matrix (Angstroms)
             O (  1)   H (  2)   H (  3)   O (  4)   H (  5)   H (  6)
   H (  2)  0.988719
   H (  3)  0.969212  1.546580
   O (  4)  3.043912  3.357883  2.190713
   H (  5)  3.755729  4.019305  2.825885  0.949992
   H (  6)  3.539998  3.747208  2.842791  0.975237  1.567726
   O (  7)  2.771755  3.635244  2.893216  4.538797  5.006177  5.277558
   H (  8)  2.068972  2.826074  2.424141  4.390507  4.927598  5.089196
   H (  9)  2.703644  3.671676  2.689513  4.008398  4.535472  4.675036
   O ( 10)  3.379351  4.289466  2.946966  2.976011  3.489088  3.439247
   H ( 11)  2.917460  3.715747  2.344888  2.049161  2.664941  2.491592
   H ( 12)  4.066423  4.951230  3.721295  3.510864  4.061261  3.746880
             O (  7)   H (  8)   H (  9)   O ( 10)   H ( 11)
   H (  8)  0.961352
   H (  9)  0.961687  1.560803
   O ( 10)  2.975473  3.385220  2.055883
   H ( 11)  3.312286  3.483155  2.493228  0.963043
   H ( 12)  3.728252  4.147201  2.769278  0.971020  1.555311

 A cutoff of  1.0D-12 yielded  15978 shell pairs
 There are    227470 function pairs (    385245 Cartesian)
 Smallest overlap matrix eigenvalue = 3.68E-05

 Scale SEOQF with 1.000000e-01/1.000000e-01/1.000000e-01

 Standard Electronic Orientation quadrupole field applied
 Nucleus-field energy     =    -0.0000000009 hartrees
 Guess from superposition of atomic densities
 Warning:  Energy on first SCF cycle will be non-variational
 SAD guess density has 40.000000 electrons

 -----------------------------------------------------------------------
  General SCF calculation program by
  Eric Jon Sundstrom, Paul Horn, Yuezhi Mao, Dmitri Zuev, Alec White,
  David Stuck, Shaama M.S., Shane Yost, Joonho Lee, David Small,
  Daniel Levine, Susi Lehtola, Hugh Burton, Evgeny Epifanovsky,
  Bang C. Huynh
 -----------------------------------------------------------------------
 Exchange:     0.2000 Hartree-Fock + 0.0800 Slater + 0.7200 B88
 Correlation:  0.1900 VWN1RPA + 0.8100 LYP
 Using Euler-Maclaurin-Lebedev (75,302) quadrature formula
 A restricted SCF calculation will be
 performed using DIIS
 SCF converges when DIIS error is below 1.0e-08
 ---------------------------------------
  Cycle       Energy         DIIS error
 ---------------------------------------
    1    -305.7488586116      8.16e-03  
    2    -305.6484572141      2.14e-03  
    3    -305.3626809068      3.13e-03  
    4    -305.9078643249      6.03e-05  
    5    -305.9080028484      3.91e-05  
    6    -305.9080670596      1.67e-05  
    7    -305.9080814551      1.72e-06  
    8    -305.9080815887      8.07e-07  
    9    -305.9080816200      2.38e-07  
   10    -305.9080816230      2.82e-08  
   11    -305.9080816230      2.51e-09  Convergence criterion met
 ---------------------------------------
 SCF time:   CPU 43425.72s  wall 1379.00s 
 SCF   energy =  -305.90808162
 Total energy =  -305.90808162

 --------------------------------------------------------------

                    Orbital Energies (a.u.)
 --------------------------------------------------------------

 Alpha MOs
 -- Occupied --
-19.1812 -19.1320 -19.1281 -19.0662  -1.0660  -1.0127  -1.0100  -0.9537
 -0.5935  -0.5438  -0.5275  -0.4878  -0.4476  -0.4009  -0.3957  -0.3692
 -0.3350  -0.3223  -0.3097  -0.2630
 -- Virtual --
 -0.0404   0.0122   0.0173   0.0341   0.0829   0.1064   0.1195   0.1365
  0.1714   0.1857   0.1993   0.2133   0.2246   0.2379   0.2545   0.2699
  0.2751   0.2820   0.2930   0.2957   0.2979   0.3048   0.3184   0.3317
  0.3360   0.3558   0.3673   0.3809   0.3962   0.4313   0.4498   0.4607
  0.4971   0.5177   0.5269   0.5528   0.5626   0.5681   0.5859   0.6247
  0.6393   0.6428   0.6588   0.6833   0.7021   0.7183   0.7194   0.7478
  0.7522   0.7612   0.7740   0.7847   0.8045   0.8112   0.8257   0.8370
  0.8406   0.8582   0.8809   0.9036   0.9189   0.9468   0.9667   0.9919
  1.0140   1.0215   1.0274   1.0472   1.0682   1.0858   1.0932   1.1089
  1.1207   1.1285   1.1559   1.1683   1.1742   1.1843   1.2147   1.2324
  1.2449   1.2739   1.2929   1.3183   1.3237   1.3556   1.3694   1.4030
  1.4148   1.4358   1.4675   1.4721   1.4823   1.5241   1.5338   1.5437
  1.5549   1.5667   1.5803   1.6029   1.6226   1.6391   1.6532   1.6665
  1.6857   1.6992   1.7043   1.7211   1.7269   1.7501   1.7584   1.7676
  1.7889   1.7998   1.8045   1.8171   1.8271   1.8501   1.8555   1.8690
  1.8801   1.9003   1.9056   1.9251   1.9416   1.9513   1.9532   1.9822
  1.9980   2.0109   2.0259   2.0406   2.0581   2.0878   2.0880   2.1082
  2.1441   2.1709   2.1850   2.1954   2.2340   2.2616   2.2764   2.2806
  2.3008   2.3218   2.3294   2.3457   2.3644   2.3925   2.3961   2.4056
  2.4236   2.4290   2.4551   2.4774   2.5007   2.5515   2.5741   2.5935
  2.6125   2.6229   2.6622   2.6868   2.6933   2.7092   2.7303   2.7504
  2.7677   2.7862   2.8030   2.8203   2.8323   2.8353   2.8773   2.8891
  2.9174   2.9254   2.9405   2.9648   2.9766   2.9961   3.0017   3.0188
  3.0380   3.0567   3.1000   3.1086   3.1523   3.1978   3.2034   3.2546
  3.2840   3.3009   3.3097   3.3149   3.3348   3.3478   3.3793   3.3924
  3.4054   3.4281   3.4566   3.4710   3.4929   3.5178   3.5269   3.5479
  3.5938   3.6018   3.6294   3.6486   3.6837   3.7029   3.7113   3.7194
  3.7373   3.7538   3.7687   3.7946   3.8203   3.8354   3.8374   3.8575
  3.8800   3.8824   3.9031   3.9440   3.9891   4.0097   4.0294   4.0320
  4.0740   4.1083   4.1266   4.1707   4.2022   4.2202   4.2474   4.2757
  4.3156   4.3209   4.3578   4.3690   4.3849   4.4008   4.4150   4.4339
  4.4492   4.4635   4.4927   4.5090   4.5174   4.5254   4.5419   4.5563
  4.5802   4.5946   4.6085   4.6118   4.6261   4.6367   4.6649   4.6727
  4.6892   4.7114   4.7336   4.7593   4.7664   4.7699   4.7943   4.8030
  4.8128   4.8264   4.8609   4.8658   4.8882   4.8984   4.9066   4.9114
  4.9508   4.9672   4.9876   5.0057   5.0223   5.0345   5.0598   5.0821
  5.0909   5.1381   5.1436   5.1603   5.1746   5.1993   5.2267   5.2581
  5.2700   5.2940   5.3358   5.3683   5.3948   5.4069   5.4129   5.4403
  5.4543   5.4950   5.5199   5.5360   5.5880   5.6026   5.6237   5.6572
  5.7212   5.7749   5.8136   5.8376   5.8471   5.8775   5.8989   5.9222
  5.9571   6.0430   6.0691   6.1080   6.1347   6.1609   6.1751   6.1912
  6.2715   6.2811   6.2974   6.3131   6.3296   6.3590   6.3990   6.4264
  6.4436   6.5018   6.5260   6.5450   6.5705   6.5845   6.5887   6.6346
  6.6458   6.6845   6.7062   6.7138   6.7325   6.7440   6.7789   6.7945
  6.8003   6.8189   6.8304   6.8717   6.8775   6.9092   6.9313   6.9384
  6.9579   6.9596   6.9799   7.0219   7.0428   7.0929   7.1199   7.1313
  7.1420   7.1780   7.1981   7.2556   7.2804   7.2975   7.3227   7.3536
  7.3582   7.3825   7.3950   7.4038   7.4245   7.4528   7.5038   7.5205
  7.5408   7.6098   7.6247   7.6376   7.6849   7.6882   7.7382   7.7723
  7.8039   7.8445   7.8908   7.9230   7.9303   7.9336   7.9576   7.9872
  8.0783   8.0902   8.1054   8.2456   8.3099   8.3597   8.4186   8.4829
  8.5364   8.6450   8.6789   8.8298   8.9155   9.0287   9.0522   9.0753
  9.0982   9.1215   9.1710   9.1999   9.2267   9.2456   9.3326   9.3661
  9.6655   9.6713   9.6815   9.6920   9.7510   9.7924   9.7986   9.8215
  9.8563   9.8803   9.9068   9.9865  11.6609  11.7028  11.7142  11.7537
 11.7819  11.7827  11.8144  11.8261  11.8479  11.8703  11.8955  11.8994
 11.9192  11.9330  11.9733  12.0005  12.0172  12.0382  12.0605  12.0906
 12.0982  12.1085  12.1200  12.1348  12.1508  12.1608  12.1681  12.1761
 12.1815  12.1930  12.2005  12.2176  12.2293  12.2392  12.2445  12.2536
 12.2883  12.2943  12.2972  12.3087  12.3117  12.3324  12.3350  12.3509
 12.3665  12.3757  12.3937  12.3990  12.4053  12.4140  12.4262  12.4879
 12.4923  12.5110  12.5199  12.5358  12.5462  12.5876  12.5921  12.6124
 12.6197  12.6415  12.6549  12.6844  12.6901  12.7078  12.7372  12.7825
 12.8013  12.8462  12.8641  12.8764  12.8822  12.9042  12.9281  12.9445
 12.9688  12.9720  13.0057  13.0359  13.0624  13.0885  13.1068  13.1791
 13.1995  13.2128  13.2395  13.2446  13.2587  13.3136  13.3274  13.3339
 13.3511  13.3634  13.3677  13.3914  13.4025  13.4139  13.4329  13.4392
 13.4663  13.4763  13.4877  13.4961  13.5068  13.5165  13.5336  13.5405
 13.5509  13.5741  13.5809  13.5853  13.6052  13.6081  13.6230  13.6422
 13.6691  13.6836  13.6884  13.7384  13.7444  13.7726  13.7940  13.8138
 13.8416  13.8487  13.8812  13.9201  13.9277  13.9601  13.9933  14.0102
 14.0282  14.0458  14.0654  14.1141  14.1442  14.1700  14.1856  14.1950
 14.2333  14.2566  14.3007  14.3203  14.3511  14.3778  14.4304  14.4422
 14.4738  14.4949  14.5316  14.5582  14.5980  14.6463  14.6748  14.7299
 15.2054  15.2119  15.2509  15.2784  15.4092  15.4479  15.4512  15.4752
 15.5154  15.5412  15.5757  15.6270  15.7762  15.7964  15.8218  15.8430
 15.8798  15.9103  15.9252  16.0211  16.0231  16.0515  16.0602  16.0832
 16.0947  16.1078  16.1222  16.1401  16.1535  16.1660  16.1942  16.1999
 16.2210  16.2346  16.2381  16.2608  16.2714  16.2905  16.3371  16.3441
 16.3528  16.3745  16.3831  16.4201  16.4394  16.4672  16.5041  16.6146
 16.7051  16.8343  16.8522  16.9238  16.9525  17.0103  17.0417  17.0742
 17.0807  17.0923  17.1107  17.1258  17.2169  17.2783  17.2837  17.3151
 17.3821  17.3911  17.4502  17.4656  17.5493  17.5606  17.5831  17.5934
 17.6398  17.6453  17.6611  17.6641  17.6932  17.7162  17.7842  17.8166
 17.9942  18.0761  18.1031  18.1289  18.1614  18.1915  18.2178  18.2407
 18.2547  18.2822  18.3132  18.3678  18.3884  18.3959  18.4135  18.4199
 18.4242  18.4335  18.4506  18.5158  18.5318  18.5900  18.6451  18.7353
 18.7585  18.8827  18.8909  18.8992  18.9390  18.9897  19.0163  19.0497
 19.1498  19.2949  19.3241  19.3312  19.3604  19.3742  19.4070  19.4196
 19.4323  19.4376  19.4788  19.4988  19.5279  19.5346  19.5459  19.5579
 19.5998  19.6125  19.6626  19.6865  19.7487  19.7846  19.7927  19.8656
 20.6259  20.6605  20.7201  20.7667  20.7841  20.9040  20.9134  21.0263
 21.9267  21.9324  21.9570  21.9893  22.0029  22.0377  22.0466  22.0929
 22.2272  22.3313  22.3370  22.3620  22.6398  22.7970  22.8023  22.8672
 22.9221  23.0117  23.1038  23.1335  23.1425  23.1607  23.2195  23.2926
 23.3140  23.3639  23.3840  23.4338  24.3336  24.4696  24.5020  24.5472
 24.6015  24.7294  24.7551  24.9570  24.9767  25.0546  25.1017  25.1636
 25.7622  25.9959  26.0165  26.2191  64.0683  64.1059  64.2144  64.3562
 --------------------------------------------------------------


                        RESTRICTED (RHF) MOLECULAR ORBITAL COEFFICIENTS
                         1         2         3         4         5         6
 eigenvalues:        -19.181   -19.132   -19.128   -19.066    -1.066    -1.013
   1  O 1   s        0.00002   0.97841  -0.00003   0.00002   0.00079  -0.00862
   2  O 1   s        0.00001   0.03081  -0.00002   0.00001  -0.01139   0.13170
   3  O 1   s        0.00002   0.08490  -0.00004   0.00002  -0.00028   0.00360
   4  O 1   s       -0.00002  -0.01498   0.00010  -0.00023  -0.01319   0.15139
   5  O 1   s       -0.00044  -0.01464   0.00021   0.00072  -0.01774   0.20352
   6  O 1   s       -0.00044  -0.00395   0.00013   0.00173  -0.00736   0.07994
   7  O 1   px       0.00000   0.00030   0.00000  -0.00001  -0.00029   0.00258
   8  O 1   py       0.00000   0.00114  -0.00000  -0.00000  -0.00107   0.01040
   9  O 1   pz      -0.00000  -0.00009  -0.00000  -0.00000  -0.00033   0.00003
  10  O 1   px      -0.00001   0.00019  -0.00001   0.00004  -0.00042   0.00416
  11  O 1   py       0.00000   0.00071  -0.00000   0.00000  -0.00177   0.01695
  12  O 1   pz       0.00003   0.00009  -0.00001   0.00000  -0.00051   0.00009
  13  O 1   px       0.00006  -0.00216   0.00003  -0.00011  -0.00092   0.00747
  14  O 1   py      -0.00011  -0.00887   0.00010   0.00000  -0.00295   0.02867
  15  O 1   pz      -0.00026  -0.00095   0.00011  -0.00000  -0.00095  -0.00066
  16  O 1   px       0.00022   0.00034   0.00016   0.00020  -0.00127   0.00424
  17  O 1   py      -0.00004  -0.00093  -0.00007   0.00063  -0.00163   0.01864
  18  O 1   pz      -0.00035  -0.00027  -0.00008  -0.00039  -0.00114  -0.00024
  19  O 1   px       0.00015  -0.00008   0.00003  -0.00003  -0.00003   0.00107
  20  O 1   py       0.00002  -0.00037   0.00007   0.00021  -0.00028   0.00256
  21  O 1   pz      -0.00011   0.00069  -0.00020  -0.00017  -0.00025  -0.00062
  22  O 1   d 1     -0.00000   0.00008   0.00000  -0.00000  -0.00001   0.00005
  23  O 1   d 2      0.00000   0.00005  -0.00000   0.00000  -0.00001   0.00003
  24  O 1   d 3     -0.00000   0.00018  -0.00000  -0.00000  -0.00001   0.00004
  25  O 1   d 4     -0.00000  -0.00013   0.00000   0.00000  -0.00000  -0.00005
  26  O 1   d 5     -0.00000  -0.00013   0.00000   0.00000   0.00001  -0.00009
  27  O 1   d 1      0.00000  -0.00016  -0.00000   0.00000  -0.00000   0.00033
  28  O 1   d 2     -0.00001  -0.00010   0.00001  -0.00000  -0.00005   0.00017
  29  O 1   d 3      0.00000  -0.00027   0.00000   0.00000  -0.00006   0.00062
  30  O 1   d 4      0.00000   0.00021  -0.00001   0.00000   0.00006  -0.00046
  31  O 1   d 5      0.00001   0.00023  -0.00001  -0.00001   0.00007  -0.00062
  32  O 1   d 1      0.00003  -0.00045   0.00003   0.00003  -0.00035   0.00171
  33  O 1   d 2     -0.00010  -0.00106   0.00004  -0.00002  -0.00028   0.00071
  34  O 1   d 3     -0.00004  -0.00230   0.00001   0.00003  -0.00032   0.00283
  35  O 1   d 4      0.00000   0.00124   0.00004  -0.00005  -0.00009  -0.00223
  36  O 1   d 5      0.00002   0.00140   0.00000   0.00003   0.00026  -0.00287
  37  O 1   d 1      0.00014   0.00021   0.00007  -0.00010  -0.00041   0.00127
  38  O 1   d 2     -0.00001   0.00027  -0.00015  -0.00023  -0.00005   0.00049
  39  O 1   d 3     -0.00010   0.00061  -0.00008   0.00043  -0.00044   0.00179
  40  O 1   d 4      0.00010  -0.00013   0.00004  -0.00030  -0.00040  -0.00111
  41  O 1   d 5     -0.00005  -0.00054   0.00001  -0.00012  -0.00006  -0.00118
  42  O 1   f 1      0.00000  -0.00002  -0.00000   0.00001   0.00000  -0.00000
  43  O 1   f 2     -0.00000  -0.00005  -0.00000   0.00000   0.00001  -0.00000
  44  O 1   f 3      0.00000   0.00015  -0.00000  -0.00000  -0.00000   0.00002
  45  O 1   f 4     -0.00000  -0.00002  -0.00000  -0.00000   0.00000  -0.00000
  46  O 1   f 5     -0.00000   0.00004  -0.00000  -0.00001   0.00000   0.00001
  47  O 1   f 6     -0.00000  -0.00006   0.00000   0.00000   0.00000  -0.00001
  48  O 1   f 7     -0.00000  -0.00001   0.00000   0.00001  -0.00001   0.00001
  49  O 1   f 1      0.00000   0.00018   0.00000  -0.00003   0.00002  -0.00024
  50  O 1   f 2      0.00000   0.00045   0.00001  -0.00001  -0.00002  -0.00050
  51  O 1   f 3     -0.00001  -0.00124   0.00001   0.00001  -0.00010   0.00110
  52  O 1   f 4      0.00000   0.00015   0.00000   0.00001  -0.00000  -0.00013
  53  O 1   f 5      0.00001  -0.00035   0.00000   0.00003  -0.00004   0.00034
  54  O 1   f 6      0.00001   0.00048  -0.00001  -0.00000   0.00005  -0.00039
  55  O 1   f 7     -0.00000   0.00011  -0.00000  -0.00002   0.00005  -0.00021
  56  O 1   f 1     -0.00001  -0.00008   0.00000   0.00012   0.00002  -0.00046
  57  O 1   f 2      0.00005  -0.00022   0.00003  -0.00011  -0.00017  -0.00049
  58  O 1   f 3     -0.00001   0.00057  -0.00008   0.00012  -0.00014   0.00153
  59  O 1   f 4     -0.00003  -0.00002   0.00002   0.00004  -0.00009  -0.00024
  60  O 1   f 5      0.00003   0.00020   0.00002  -0.00012  -0.00014   0.00060
  61  O 1   f 6     -0.00002  -0.00024   0.00003   0.00006  -0.00001  -0.00055
  62  O 1   f 7     -0.00005  -0.00010  -0.00002   0.00006   0.00010  -0.00033
  63  O 1   g 1      0.00000   0.00001   0.00000   0.00001   0.00000  -0.00001
  64  O 1   g 2      0.00000   0.00007  -0.00000  -0.00000   0.00000  -0.00004
  65  O 1   g 3     -0.00000  -0.00007   0.00000   0.00000  -0.00000   0.00004
  66  O 1   g 4     -0.00000   0.00001   0.00000  -0.00000   0.00000  -0.00001
  67  O 1   g 5      0.00000   0.00008  -0.00000   0.00000   0.00001  -0.00005
  68  O 1   g 6     -0.00000   0.00004  -0.00000  -0.00000   0.00000  -0.00001
  69  O 1   g 7      0.00000   0.00012  -0.00000  -0.00000   0.00001  -0.00006
  70  O 1   g 8      0.00000  -0.00005  -0.00000  -0.00000  -0.00000   0.00003
  71  O 1   g 9     -0.00000  -0.00001   0.00000   0.00000   0.00000   0.00001
  72  O 1   g 1     -0.00001  -0.00001  -0.00000  -0.00002   0.00002  -0.00004
  73  O 1   g 2     -0.00001  -0.00001   0.00000   0.00001   0.00001  -0.00025
  74  O 1   g 3      0.00002   0.00003   0.00000  -0.00001  -0.00005   0.00027
  75  O 1   g 4     -0.00001  -0.00002   0.00000   0.00002  -0.00003  -0.00006
  76  O 1   g 5     -0.00000  -0.00006   0.00001  -0.00001  -0.00000  -0.00028
  77  O 1   g 6      0.00000   0.00004   0.00001   0.00000  -0.00000  -0.00009
  78  O 1   g 7     -0.00000  -0.00001   0.00002  -0.00000   0.00002  -0.00041
  79  O 1   g 8     -0.00002   0.00002  -0.00001   0.00003   0.00004   0.00014
  80  O 1   g 9      0.00000   0.00000  -0.00000  -0.00001  -0.00001   0.00005
  81  O 1   h 1      0.00000  -0.00000  -0.00000  -0.00000  -0.00000   0.00001
  82  O 1   h 2     -0.00000  -0.00001  -0.00000   0.00000   0.00001   0.00002
  83  O 1   h 3     -0.00000   0.00003   0.00000  -0.00000   0.00000  -0.00005
  84  O 1   h 4      0.00000   0.00005   0.00000  -0.00000  -0.00000  -0.00005
  85  O 1   h 5     -0.00000  -0.00002   0.00000   0.00000  -0.00000  -0.00002
  86  O 1   h 6     -0.00000   0.00001   0.00000  -0.00000  -0.00000   0.00000
  87  O 1   h 7     -0.00000  -0.00001   0.00000  -0.00000   0.00000  -0.00000
  88  O 1   h 8      0.00000   0.00003   0.00000  -0.00000   0.00000  -0.00002
  89  O 1   h 9     -0.00000   0.00002  -0.00000   0.00000   0.00001  -0.00005
  90  O 1   h10      0.00000  -0.00003  -0.00000  -0.00000  -0.00000   0.00005
  91  O 1   h11      0.00000   0.00000   0.00000  -0.00000  -0.00000   0.00001
  92  H 1   s        0.00000  -0.00014  -0.00000  -0.00000  -0.00082   0.01023
  93  H 1   s        0.00003  -0.00171   0.00003   0.00007  -0.00187   0.02336
  94  H 1   s       -0.00019   0.00775  -0.00006  -0.00105  -0.00248   0.02828
  95  H 1   s       -0.00012   0.00314  -0.00016  -0.00099  -0.00099   0.00644
  96  H 1   s       -0.00007   0.00021  -0.00003   0.00005  -0.00020   0.00118
  97  H 1   px      -0.00000   0.00007  -0.00000   0.00000   0.00002  -0.00027
  98  H 1   py      -0.00000   0.00009  -0.00000   0.00001   0.00002  -0.00035
  99  H 1   pz      -0.00000  -0.00013  -0.00000   0.00000  -0.00005   0.00066
 100  H 1   px      -0.00000   0.00004   0.00000  -0.00002   0.00008  -0.00089
 101  H 1   py       0.00001   0.00011   0.00000  -0.00003   0.00011  -0.00111
 102  H 1   pz       0.00001  -0.00013   0.00002   0.00000  -0.00019   0.00212
 103  H 1   px       0.00003  -0.00237  -0.00004   0.00018   0.00013  -0.00095
 104  H 1   py       0.00004  -0.00353  -0.00003   0.00017   0.00011  -0.00089
 105  H 1   pz      -0.00011   0.00526  -0.00004  -0.00029  -0.00039   0.00288
 106  H 1   px      -0.00002  -0.00105   0.00003   0.00023  -0.00010   0.00001
 107  H 1   py       0.00003  -0.00143   0.00004   0.00022  -0.00022   0.00057
 108  H 1   pz      -0.00006   0.00212   0.00000  -0.00030  -0.00048   0.00022
 109  H 1   d 1      0.00000  -0.00008   0.00000   0.00001  -0.00001   0.00009
 110  H 1   d 2      0.00000   0.00017   0.00000  -0.00000   0.00001  -0.00021
 111  H 1   d 3      0.00000  -0.00009   0.00000   0.00000  -0.00002   0.00018
 112  H 1   d 4     -0.00000   0.00012   0.00000   0.00000   0.00001  -0.00017
 113  H 1   d 5     -0.00000   0.00004  -0.00000   0.00001   0.00000  -0.00003
 114  H 1   d 1     -0.00002   0.00075   0.00000  -0.00002  -0.00002   0.00011
 115  H 1   d 2      0.00001  -0.00160  -0.00000   0.00003   0.00007  -0.00018
 116  H 1   d 3     -0.00002   0.00090  -0.00001  -0.00004  -0.00002   0.00021
 117  H 1   d 4      0.00001  -0.00110  -0.00001   0.00001   0.00004  -0.00017
 118  H 1   d 5      0.00001  -0.00034   0.00001  -0.00003  -0.00000  -0.00005
 119  H 1   d 1     -0.00000   0.00093   0.00001  -0.00001   0.00000  -0.00010
 120  H 1   d 2      0.00004  -0.00206   0.00001   0.00003  -0.00011   0.00012
 121  H 1   d 3     -0.00002   0.00122   0.00001  -0.00000  -0.00015   0.00023
 122  H 1   d 4      0.00001  -0.00141  -0.00001   0.00004  -0.00001  -0.00005
 123  H 1   d 5      0.00000  -0.00028  -0.00000  -0.00004   0.00003   0.00005
 124  H 1   f 1      0.00000  -0.00001   0.00000   0.00000   0.00000  -0.00000
 125  H 1   f 2     -0.00000   0.00015  -0.00000  -0.00000  -0.00000   0.00003
 126  H 1   f 3      0.00000  -0.00017   0.00000   0.00000   0.00001  -0.00003
 127  H 1   f 4     -0.00000  -0.00000  -0.00000  -0.00000  -0.00000   0.00001
 128  H 1   f 5      0.00000  -0.00012  -0.00000   0.00001   0.00001  -0.00004
 129  H 1   f 6      0.00000  -0.00006   0.00000   0.00000   0.00000  -0.00001
 130  H 1   f 7      0.00000   0.00006  -0.00000  -0.00000  -0.00000   0.00001
 131  H 1   f 1     -0.00000  -0.00005  -0.00001   0.00001   0.00000   0.00001
 132  H 1   f 2     -0.00001   0.00082   0.00000   0.00001  -0.00001   0.00003
 133  H 1   f 3      0.00001  -0.00092   0.00000   0.00001  -0.00001  -0.00002
 134  H 1   f 4     -0.00000   0.00003   0.00000  -0.00001  -0.00001  -0.00000
 135  H 1   f 5      0.00000  -0.00065  -0.00000  -0.00002  -0.00000  -0.00001
 136  H 1   f 6      0.00000  -0.00031   0.00000  -0.00003   0.00001  -0.00001
 137  H 1   f 7     -0.00001   0.00031  -0.00000   0.00001  -0.00001   0.00003
 138  H 1   g 1     -0.00000  -0.00003   0.00000   0.00000  -0.00000  -0.00000
 139  H 1   g 2     -0.00000  -0.00002  -0.00000   0.00000   0.00000  -0.00000
 140  H 1   g 3     -0.00000   0.00016  -0.00000  -0.00000  -0.00000   0.00002
 141  H 1   g 4      0.00000  -0.00009   0.00000   0.00000   0.00000  -0.00001
 142  H 1   g 5      0.00000  -0.00007   0.00000  -0.00000   0.00000  -0.00000
 143  H 1   g 6      0.00000  -0.00006  -0.00000  -0.00000   0.00000  -0.00001
 144  H 1   g 7      0.00000  -0.00006   0.00000  -0.00000   0.00000  -0.00001
 145  H 1   g 8      0.00000   0.00010  -0.00000   0.00000  -0.00000   0.00001
 146  H 1   g 9     -0.00000  -0.00002   0.00000  -0.00000   0.00000  -0.00000
 147  H 2   s        0.00000  -0.00018  -0.00001  -0.00000  -0.00148   0.01092
 148  H 2   s       -0.00011  -0.00197   0.00011   0.00004  -0.00312   0.02440
 149  H 2   s        0.00061   0.01066   0.00008  -0.00039  -0.00515   0.02977
 150  H 2   s        0.00017   0.00238  -0.00029  -0.00038   0.00015   0.00896
 151  H 2   s        0.00025  -0.00013  -0.00002  -0.00011  -0.00037   0.00027
 152  H 2   px      -0.00000  -0.00001  -0.00000  -0.00000  -0.00003   0.00003
 153  H 2   py      -0.00000   0.00014  -0.00000   0.00000   0.00002  -0.00055
 154  H 2   pz      -0.00000   0.00016  -0.00000  -0.00000   0.00002  -0.00065
 155  H 2   px       0.00001   0.00003   0.00002  -0.00001  -0.00003   0.00013
 156  H 2   py       0.00003   0.00005  -0.00001  -0.00001   0.00024  -0.00161
 157  H 2   pz       0.00002  -0.00003  -0.00002   0.00002   0.00028  -0.00203
 158  H 2   px      -0.00011  -0.00001  -0.00010   0.00019  -0.00008  -0.00003
 159  H 2   py      -0.00025  -0.00622   0.00004   0.00024  -0.00059  -0.00224
 160  H 2   pz      -0.00014  -0.00633   0.00011  -0.00003  -0.00044  -0.00301
 161  H 2   px      -0.00029  -0.00020  -0.00013   0.00014   0.00071  -0.00006
 162  H 2   py      -0.00054  -0.00198   0.00011   0.00014  -0.00092  -0.00076
 163  H 2   pz      -0.00040  -0.00232   0.00005   0.00006  -0.00064  -0.00107
 164  H 2   d 1     -0.00001   0.00002   0.00000   0.00001   0.00002  -0.00003
 165  H 2   d 2     -0.00001  -0.00020   0.00001   0.00001  -0.00002   0.00028
 166  H 2   d 3     -0.00000  -0.00006  -0.00000  -0.00001  -0.00000   0.00014
 167  H 2   d 4     -0.00001   0.00001  -0.00000   0.00000   0.00003  -0.00003
 168  H 2   d 5      0.00000   0.00011   0.00000  -0.00000   0.00002  -0.00013
 169  H 2   d 1      0.00005  -0.00009   0.00001  -0.00005  -0.00014   0.00009
 170  H 2   d 2      0.00007   0.00239  -0.00004  -0.00004  -0.00015   0.00041
 171  H 2   d 3      0.00001   0.00075   0.00001   0.00004  -0.00011   0.00019
 172  H 2   d 4      0.00004  -0.00009   0.00002  -0.00004  -0.00018   0.00001
 173  H 2   d 5     -0.00002  -0.00122   0.00000   0.00002  -0.00003  -0.00019
 174  H 2   d 1     -0.00000   0.00014   0.00007  -0.00006  -0.00058  -0.00008
 175  H 2   d 2      0.00010   0.00329  -0.00008   0.00002   0.00007   0.00017
 176  H 2   d 3     -0.00003   0.00106  -0.00011   0.00005  -0.00015   0.00054
 177  H 2   d 4      0.00001   0.00013   0.00004  -0.00004  -0.00063  -0.00004
 178  H 2   d 5     -0.00014  -0.00147   0.00007   0.00006  -0.00019  -0.00029
 179  H 2   f 1      0.00000   0.00009   0.00000   0.00000  -0.00001   0.00002
 180  H 2   f 2     -0.00000   0.00001  -0.00000   0.00001  -0.00000   0.00000
 181  H 2   f 3      0.00000  -0.00021  -0.00000   0.00000   0.00000  -0.00005
 182  H 2   f 4     -0.00000   0.00005   0.00000  -0.00001   0.00001   0.00000
 183  H 2   f 5     -0.00000  -0.00000   0.00000   0.00000  -0.00001   0.00001
 184  H 2   f 6      0.00000   0.00021  -0.00000  -0.00001  -0.00001   0.00005
 185  H 2   f 7      0.00000  -0.00000  -0.00000  -0.00000  -0.00000   0.00000
 186  H 2   f 1      0.00001   0.00048  -0.00002  -0.00001   0.00001   0.00010
 187  H 2   f 2     -0.00003   0.00004  -0.00002   0.00001   0.00008  -0.00006
 188  H 2   f 3     -0.00003  -0.00112   0.00002  -0.00001  -0.00001  -0.00016
 189  H 2   f 4      0.00003   0.00024  -0.00001  -0.00001   0.00003   0.00003
 190  H 2   f 5     -0.00002   0.00005  -0.00002   0.00000   0.00005  -0.00001
 191  H 2   f 6      0.00004   0.00114  -0.00003   0.00000   0.00005   0.00013
 192  H 2   f 7      0.00001   0.00002   0.00002  -0.00002  -0.00007   0.00004
 193  H 2   g 1     -0.00000  -0.00001  -0.00000   0.00000   0.00001   0.00000
 194  H 2   g 2     -0.00000  -0.00012   0.00000   0.00000  -0.00000  -0.00003
 195  H 2   g 3      0.00000  -0.00001   0.00000  -0.00000  -0.00002  -0.00000
 196  H 2   g 4     -0.00000   0.00005   0.00000   0.00000  -0.00001   0.00001
 197  H 2   g 5     -0.00000  -0.00009   0.00000   0.00000   0.00001  -0.00002
 198  H 2   g 6      0.00000  -0.00000  -0.00000   0.00000  -0.00001  -0.00000
 199  H 2   g 7     -0.00000  -0.00016   0.00000  -0.00000   0.00001  -0.00004
 200  H 2   g 8     -0.00000   0.00000  -0.00000   0.00000   0.00002  -0.00000
 201  H 2   g 9      0.00000   0.00005  -0.00000   0.00000   0.00000   0.00001
 202  O 2   s       -0.97850   0.00000  -0.00001   0.00001   0.01889   0.00142
 203  O 2   s       -0.03094  -0.00001   0.00001   0.00001  -0.28666  -0.02256
 204  O 2   s       -0.08502  -0.00001   0.00001   0.00001  -0.00767  -0.00062
 205  O 2   s        0.01540  -0.00016   0.00015  -0.00006  -0.32879  -0.02576
 206  O 2   s        0.01409   0.00099  -0.00086   0.00006  -0.44985  -0.03795
 207  O 2   s        0.00584   0.00052  -0.00043  -0.00010  -0.17580  -0.01400
 208  O 2   px      -0.00067  -0.00000   0.00000   0.00000  -0.01246  -0.00157
 209  O 2   py      -0.00076  -0.00000  -0.00000   0.00000  -0.01588  -0.00238
 210  O 2   pz      -0.00052  -0.00000  -0.00000  -0.00000  -0.01028  -0.00093
 211  O 2   px      -0.00033   0.00001   0.00000  -0.00000  -0.02025  -0.00257
 212  O 2   py      -0.00046  -0.00001   0.00001  -0.00000  -0.02581  -0.00391
 213  O 2   pz      -0.00025   0.00000   0.00003  -0.00000  -0.01675  -0.00149
 214  O 2   px       0.00432   0.00003  -0.00012   0.00000  -0.03540  -0.00414
 215  O 2   py       0.00616   0.00007   0.00004  -0.00000  -0.04473  -0.00612
 216  O 2   pz       0.00373   0.00002  -0.00011  -0.00000  -0.02875  -0.00268
 217  O 2   px      -0.00017  -0.00057  -0.00035   0.00012  -0.02343  -0.00442
 218  O 2   py       0.00117   0.00084  -0.00043  -0.00001  -0.02646  -0.00531
 219  O 2   pz       0.00095   0.00034  -0.00023   0.00001  -0.01882  -0.00197
 220  O 2   px      -0.00018  -0.00042  -0.00014  -0.00002  -0.00276  -0.00150
 221  O 2   py       0.00015   0.00015   0.00008  -0.00006  -0.00260  -0.00103
 222  O 2   pz       0.00035   0.00006  -0.00004  -0.00005  -0.00245  -0.00007
 223  O 2   d 1      0.00012   0.00000  -0.00000  -0.00000   0.00006   0.00001
 224  O 2   d 2     -0.00016   0.00000  -0.00000   0.00000  -0.00022  -0.00003
 225  O 2   d 3      0.00019   0.00000  -0.00000   0.00000   0.00019   0.00002
 226  O 2   d 4      0.00002   0.00000   0.00000   0.00000  -0.00001  -0.00000
 227  O 2   d 5     -0.00006  -0.00000  -0.00000   0.00000  -0.00003  -0.00000
 228  O 2   d 1     -0.00016  -0.00001   0.00000   0.00000   0.00087   0.00010
 229  O 2   d 2      0.00029  -0.00002   0.00002  -0.00000  -0.00159  -0.00016
 230  O 2   d 3     -0.00032   0.00000   0.00001  -0.00000   0.00158   0.00012
 231  O 2   d 4     -0.00002  -0.00001  -0.00001  -0.00000   0.00001   0.00000
 232  O 2   d 5      0.00008   0.00001   0.00002  -0.00000  -0.00041  -0.00007
 233  O 2   d 1     -0.00203  -0.00002   0.00000  -0.00000   0.00454   0.00043
 234  O 2   d 2      0.00173   0.00013  -0.00009   0.00001  -0.00744  -0.00078
 235  O 2   d 3     -0.00190  -0.00004   0.00001   0.00000   0.00766   0.00072
 236  O 2   d 4     -0.00054   0.00001   0.00006   0.00001   0.00050   0.00001
 237  O 2   d 5      0.00079  -0.00004  -0.00016   0.00000  -0.00267  -0.00016
 238  O 2   d 1      0.00037  -0.00040   0.00002  -0.00000   0.00206   0.00081
 239  O 2   d 2     -0.00030   0.00023  -0.00023  -0.00001  -0.00351  -0.00068
 240  O 2   d 3      0.00040  -0.00002  -0.00004  -0.00004   0.00473   0.00038
 241  O 2   d 4      0.00002  -0.00030   0.00014   0.00000  -0.00006  -0.00004
 242  O 2   d 5     -0.00047  -0.00043  -0.00046   0.00004  -0.00159  -0.00058
 243  O 2   f 1      0.00005   0.00001   0.00000   0.00000   0.00002   0.00000
 244  O 2   f 2      0.00006   0.00000  -0.00000   0.00000   0.00003   0.00001
 245  O 2   f 3     -0.00000   0.00000   0.00000   0.00000   0.00000  -0.00000
 246  O 2   f 4      0.00006  -0.00000  -0.00000   0.00000   0.00002  -0.00000
 247  O 2   f 5      0.00006   0.00001  -0.00000   0.00000   0.00001   0.00000
 248  O 2   f 6      0.00004   0.00000  -0.00000   0.00000   0.00003  -0.00000
 249  O 2   f 7     -0.00014  -0.00000   0.00000   0.00000  -0.00005  -0.00000
 250  O 2   f 1     -0.00040  -0.00003  -0.00003  -0.00000   0.00080   0.00008
 251  O 2   f 2     -0.00046  -0.00002   0.00002  -0.00000   0.00075   0.00005
 252  O 2   f 3      0.00000  -0.00000  -0.00001  -0.00000   0.00002   0.00002
 253  O 2   f 4     -0.00048   0.00001   0.00001  -0.00000   0.00122   0.00012
 254  O 2   f 5     -0.00048  -0.00004   0.00001  -0.00000   0.00112   0.00010
 255  O 2   f 6     -0.00033  -0.00002   0.00001  -0.00000   0.00079   0.00010
 256  O 2   f 7      0.00114   0.00001  -0.00003  -0.00000  -0.00236  -0.00021
 257  O 2   f 1      0.00022  -0.00003  -0.00016  -0.00000   0.00087   0.00029
 258  O 2   f 2      0.00012   0.00007   0.00009   0.00001   0.00118   0.00010
 259  O 2   f 3     -0.00003   0.00002  -0.00003   0.00001  -0.00003  -0.00003
 260  O 2   f 4      0.00015  -0.00005  -0.00001  -0.00001   0.00165   0.00009
 261  O 2   f 5      0.00023   0.00011   0.00005  -0.00000   0.00168   0.00017
 262  O 2   f 6      0.00011  -0.00006  -0.00007  -0.00000   0.00133   0.00012
 263  O 2   f 7     -0.00047   0.00000  -0.00008   0.00002  -0.00358  -0.00018
 264  O 2   g 1      0.00004   0.00000   0.00000   0.00000  -0.00007  -0.00001
 265  O 2   g 2     -0.00004   0.00000   0.00000   0.00000   0.00008   0.00001
 266  O 2   g 3     -0.00000   0.00000  -0.00000   0.00000   0.00002   0.00000
 267  O 2   g 4     -0.00006   0.00000  -0.00000  -0.00000   0.00008   0.00001
 268  O 2   g 5      0.00002  -0.00000  -0.00000  -0.00000  -0.00002  -0.00000
 269  O 2   g 6      0.00000  -0.00000   0.00000   0.00000   0.00001  -0.00000
 270  O 2   g 7     -0.00007   0.00000  -0.00000   0.00000   0.00009   0.00001
 271  O 2   g 8      0.00008   0.00000  -0.00000  -0.00000  -0.00011  -0.00001
 272  O 2   g 9      0.00009   0.00000  -0.00000  -0.00000  -0.00013  -0.00001
 273  O 2   g 1     -0.00002  -0.00001  -0.00004  -0.00000  -0.00030  -0.00003
 274  O 2   g 2      0.00004  -0.00001  -0.00003  -0.00000   0.00030   0.00006
 275  O 2   g 3      0.00003  -0.00000   0.00003  -0.00000   0.00003   0.00001
 276  O 2   g 4     -0.00005  -0.00001   0.00000   0.00000   0.00039   0.00005
 277  O 2   g 5      0.00001   0.00000   0.00002   0.00000  -0.00011  -0.00002
 278  O 2   g 6      0.00005   0.00001  -0.00001  -0.00000   0.00002   0.00001
 279  O 2   g 7     -0.00001  -0.00001   0.00002  -0.00000   0.00057   0.00005
 280  O 2   g 8      0.00005  -0.00001  -0.00002   0.00000  -0.00062  -0.00003
 281  O 2   g 9     -0.00007  -0.00000   0.00002   0.00000  -0.00074  -0.00009
 282  O 2   h 1     -0.00004   0.00000  -0.00000  -0.00000   0.00002  -0.00000
 283  O 2   h 2      0.00005   0.00000  -0.00000   0.00000  -0.00011  -0.00001
 284  O 2   h 3      0.00000   0.00000   0.00000  -0.00000   0.00003   0.00000
 285  O 2   h 4      0.00003   0.00000   0.00000  -0.00000  -0.00004  -0.00000
 286  O 2   h 5     -0.00003  -0.00000   0.00000  -0.00000   0.00008   0.00001
 287  O 2   h 6      0.00003  -0.00000   0.00000   0.00000  -0.00007  -0.00001
 288  O 2   h 7      0.00005  -0.00000  -0.00000  -0.00000  -0.00010  -0.00001
 289  O 2   h 8      0.00002   0.00000   0.00000  -0.00000  -0.00002  -0.00000
 290  O 2   h 9     -0.00002  -0.00000  -0.00000  -0.00000   0.00005   0.00001
 291  O 2   h10      0.00000   0.00000   0.00001   0.00000  -0.00007  -0.00001
 292  O 2   h11      0.00001  -0.00000  -0.00001   0.00000  -0.00005  -0.00000
 293  H 3   s        0.00025   0.00000  -0.00000   0.00000  -0.02429  -0.00218
 294  H 3   s        0.00135   0.00008  -0.00002  -0.00001  -0.05463  -0.00503
 295  H 3   s       -0.01066  -0.00144   0.00046   0.00001  -0.06177  -0.00485
 296  H 3   s       -0.00401  -0.00085  -0.00036   0.00015  -0.01375  -0.00171
 297  H 3   s       -0.00007  -0.00001  -0.00000   0.00001  -0.00192   0.00006
 298  H 3   px       0.00006   0.00000  -0.00001  -0.00000  -0.00071  -0.00007
 299  H 3   py      -0.00020   0.00000  -0.00000  -0.00000   0.00161   0.00014
 300  H 3   pz      -0.00010   0.00000   0.00001   0.00000   0.00079   0.00007
 301  H 3   px      -0.00007  -0.00000   0.00003  -0.00000  -0.00216  -0.00022
 302  H 3   py       0.00028  -0.00001   0.00000   0.00001   0.00491   0.00043
 303  H 3   pz       0.00013  -0.00002  -0.00003   0.00000   0.00246   0.00022
 304  H 3   px      -0.00234  -0.00019  -0.00022  -0.00001  -0.00355  -0.00002
 305  H 3   py       0.00718   0.00042  -0.00034  -0.00000   0.00462   0.00010
 306  H 3   pz       0.00364   0.00025   0.00014  -0.00001   0.00223   0.00009
 307  H 3   px      -0.00086  -0.00001  -0.00013   0.00002  -0.00116   0.00014
 308  H 3   py       0.00309   0.00038   0.00009  -0.00006  -0.00098  -0.00025
 309  H 3   pz       0.00139   0.00017   0.00019  -0.00002  -0.00021  -0.00001
 310  H 3   d 1     -0.00006  -0.00001  -0.00000  -0.00000   0.00043   0.00005
 311  H 3   d 2      0.00010   0.00001   0.00000  -0.00000  -0.00049  -0.00005
 312  H 3   d 3     -0.00004  -0.00000   0.00000   0.00000   0.00020   0.00002
 313  H 3   d 4     -0.00002   0.00001  -0.00000   0.00000   0.00020   0.00002
 314  H 3   d 5     -0.00008   0.00000   0.00001  -0.00000   0.00040   0.00003
 315  H 3   d 1      0.00104   0.00006   0.00002   0.00001   0.00042  -0.00003
 316  H 3   d 2     -0.00176  -0.00006   0.00000   0.00000  -0.00046  -0.00001
 317  H 3   d 3      0.00061   0.00002  -0.00005   0.00000   0.00023   0.00002
 318  H 3   d 4      0.00050   0.00000   0.00002  -0.00000   0.00022  -0.00002
 319  H 3   d 5      0.00149   0.00000  -0.00010   0.00000   0.00020   0.00004
 320  H 3   d 1      0.00132   0.00002   0.00013  -0.00000   0.00036  -0.00016
 321  H 3   d 2     -0.00207  -0.00002  -0.00010   0.00001   0.00014   0.00001
 322  H 3   d 3      0.00075   0.00000  -0.00007  -0.00000   0.00005  -0.00006
 323  H 3   d 4      0.00069   0.00001   0.00012  -0.00000   0.00016  -0.00009
 324  H 3   d 5      0.00197   0.00005  -0.00005  -0.00002  -0.00062  -0.00007
 325  H 3   f 1     -0.00011   0.00000   0.00002  -0.00000  -0.00003  -0.00001
 326  H 3   f 2     -0.00012  -0.00000   0.00000  -0.00000  -0.00010  -0.00001
 327  H 3   f 3     -0.00001   0.00000   0.00001  -0.00000  -0.00001  -0.00000
 328  H 3   f 4     -0.00014  -0.00001   0.00000  -0.00000  -0.00009  -0.00001
 329  H 3   f 5      0.00001   0.00000  -0.00000  -0.00000   0.00002   0.00000
 330  H 3   f 6     -0.00018  -0.00000   0.00001   0.00000  -0.00009  -0.00001
 331  H 3   f 7      0.00014   0.00001  -0.00000   0.00000   0.00010   0.00001
 332  H 3   f 1     -0.00051   0.00002   0.00002   0.00000   0.00005  -0.00003
 333  H 3   f 2     -0.00054   0.00000  -0.00005   0.00000  -0.00004   0.00004
 334  H 3   f 3     -0.00008  -0.00001   0.00003  -0.00000   0.00003   0.00001
 335  H 3   f 4     -0.00072   0.00001  -0.00001   0.00000  -0.00008  -0.00001
 336  H 3   f 5      0.00002   0.00001  -0.00001   0.00000  -0.00004   0.00000
 337  H 3   f 6     -0.00084  -0.00000  -0.00001   0.00000  -0.00004  -0.00003
 338  H 3   f 7      0.00065   0.00001   0.00003  -0.00000   0.00002  -0.00004
 339  H 3   g 1     -0.00008  -0.00000  -0.00000   0.00000  -0.00005  -0.00000
 340  H 3   g 2      0.00008  -0.00000  -0.00000  -0.00000   0.00003   0.00001
 341  H 3   g 3      0.00001  -0.00000   0.00000  -0.00000   0.00001  -0.00000
 342  H 3   g 4      0.00010   0.00000  -0.00000  -0.00000   0.00005   0.00001
 343  H 3   g 5      0.00004  -0.00000   0.00000  -0.00000   0.00002   0.00000
 344  H 3   g 6     -0.00003  -0.00000  -0.00000   0.00000  -0.00003  -0.00000
 345  H 3   g 7      0.00002  -0.00000   0.00000  -0.00000   0.00001   0.00000
 346  H 3   g 8     -0.00009  -0.00000  -0.00000   0.00000  -0.00008  -0.00000
 347  H 3   g 9     -0.00003   0.00000   0.00001   0.00000   0.00000  -0.00000
 348  H 4   s        0.00018  -0.00001  -0.00000   0.00000  -0.02256  -0.00195
 349  H 4   s        0.00160   0.00007  -0.00005  -0.00001  -0.05133  -0.00454
 350  H 4   s       -0.00831   0.00019   0.00089  -0.00012  -0.05803  -0.00441
 351  H 4   s       -0.00239   0.00052   0.00048   0.00000  -0.01375   0.00040
 352  H 4   s       -0.00003   0.00003  -0.00000   0.00000  -0.00186   0.00008
 353  H 4   px      -0.00020   0.00000   0.00000  -0.00000   0.00176   0.00014
 354  H 4   py       0.00001   0.00001   0.00001  -0.00000  -0.00021  -0.00003
 355  H 4   pz      -0.00002   0.00000  -0.00000  -0.00000   0.00007   0.00001
 356  H 4   px       0.00002  -0.00002   0.00001   0.00000   0.00558   0.00050
 357  H 4   py       0.00000  -0.00003  -0.00004   0.00000  -0.00065  -0.00009
 358  H 4   pz       0.00001  -0.00002   0.00002   0.00000   0.00021   0.00002
 359  H 4   px       0.00711   0.00006  -0.00040   0.00004   0.00555   0.00015
 360  H 4   py      -0.00034   0.00011   0.00030  -0.00001  -0.00164  -0.00032
 361  H 4   pz       0.00056   0.00008  -0.00006  -0.00001  -0.00055  -0.00007
 362  H 4   px       0.00256  -0.00013  -0.00029   0.00001  -0.00027  -0.00087
 363  H 4   py      -0.00000   0.00010   0.00021   0.00001  -0.00109  -0.00039
 364  H 4   pz       0.00010   0.00008  -0.00005   0.00001  -0.00072  -0.00019
 365  H 4   d 1     -0.00001  -0.00000   0.00001  -0.00000   0.00016   0.00002
 366  H 4   d 2      0.00001   0.00000   0.00000   0.00000   0.00001  -0.00000
 367  H 4   d 3     -0.00011  -0.00000   0.00000   0.00000   0.00039   0.00003
 368  H 4   d 4      0.00004  -0.00000  -0.00000  -0.00000  -0.00006  -0.00000
 369  H 4   d 5      0.00018   0.00001  -0.00000   0.00000  -0.00064  -0.00006
 370  H 4   d 1      0.00015   0.00001  -0.00007   0.00000   0.00018   0.00003
 371  H 4   d 2     -0.00004  -0.00000  -0.00001  -0.00000  -0.00010   0.00000
 372  H 4   d 3      0.00121   0.00001  -0.00004   0.00000   0.00036   0.00003
 373  H 4   d 4     -0.00038   0.00000   0.00000   0.00000   0.00005   0.00000
 374  H 4   d 5     -0.00205  -0.00004   0.00004  -0.00000  -0.00048  -0.00003
 375  H 4   d 1      0.00016  -0.00009  -0.00021  -0.00000   0.00047   0.00022
 376  H 4   d 2      0.00007  -0.00006   0.00001  -0.00000  -0.00020  -0.00001
 377  H 4   d 3      0.00145   0.00001  -0.00002  -0.00000   0.00014  -0.00008
 378  H 4   d 4     -0.00035  -0.00009   0.00004  -0.00000   0.00037   0.00007
 379  H 4   d 5     -0.00254  -0.00003   0.00013   0.00001   0.00017   0.00014
 380  H 4   f 1     -0.00002   0.00000   0.00001  -0.00000  -0.00004  -0.00000
 381  H 4   f 2      0.00000  -0.00001  -0.00000  -0.00000  -0.00000   0.00000
 382  H 4   f 3      0.00000  -0.00000  -0.00000   0.00000   0.00001   0.00000
 383  H 4   f 4     -0.00004  -0.00000   0.00000   0.00000   0.00000   0.00000
 384  H 4   f 5     -0.00017  -0.00000   0.00000  -0.00000  -0.00009  -0.00001
 385  H 4   f 6      0.00005   0.00000  -0.00000  -0.00000   0.00001   0.00000
 386  H 4   f 7      0.00023   0.00000   0.00000   0.00000   0.00009   0.00001
 387  H 4   f 1     -0.00009   0.00001   0.00005   0.00000  -0.00001  -0.00003
 388  H 4   f 2      0.00002   0.00004   0.00000   0.00000   0.00009   0.00000
 389  H 4   f 3      0.00004  -0.00000  -0.00001  -0.00000   0.00001   0.00001
 390  H 4   f 4     -0.00020  -0.00001   0.00001   0.00000  -0.00001  -0.00000
 391  H 4   f 5     -0.00088   0.00000   0.00001   0.00000  -0.00009  -0.00001
 392  H 4   f 6      0.00022   0.00002  -0.00000  -0.00000  -0.00002  -0.00001
 393  H 4   f 7      0.00110   0.00001  -0.00004  -0.00000   0.00004   0.00001
 394  H 4   g 1      0.00002  -0.00000  -0.00001  -0.00000   0.00002   0.00000
 395  H 4   g 2     -0.00001  -0.00000   0.00000  -0.00000   0.00000  -0.00000
 396  H 4   g 3     -0.00001   0.00000   0.00000   0.00000  -0.00001  -0.00000
 397  H 4   g 4      0.00000   0.00000   0.00000   0.00000  -0.00000   0.00000
 398  H 4   g 5     -0.00008  -0.00000   0.00000   0.00000  -0.00003  -0.00000
 399  H 4   g 6      0.00005   0.00000  -0.00000  -0.00000   0.00000   0.00000
 400  H 4   g 7      0.00012  -0.00000  -0.00000  -0.00000   0.00004   0.00000
 401  H 4   g 8     -0.00003  -0.00000  -0.00000   0.00000  -0.00001  -0.00000
 402  H 4   g 9     -0.00015  -0.00000   0.00000   0.00000  -0.00005  -0.00001
 403  O 3   s       -0.00001  -0.00001   0.00000   0.97855   0.00006  -0.00157
 404  O 3   s       -0.00001  -0.00000  -0.00001   0.03102  -0.00087   0.02316
 405  O 3   s       -0.00001  -0.00000  -0.00000   0.08515  -0.00003   0.00073
 406  O 3   s        0.00005  -0.00010   0.00005  -0.01524  -0.00096   0.02625
 407  O 3   s        0.00003   0.00058  -0.00070  -0.01817  -0.00104   0.03327
 408  O 3   s       -0.00032   0.00037  -0.00063  -0.00188  -0.00042   0.01289
 409  O 3   px       0.00000   0.00000   0.00000   0.00109  -0.00010   0.00229
 410  O 3   py      -0.00000   0.00000   0.00000   0.00012  -0.00002   0.00036
 411  O 3   pz      -0.00000   0.00000  -0.00000  -0.00022   0.00000  -0.00014
 412  O 3   px       0.00000  -0.00003  -0.00001   0.00072  -0.00016   0.00378
 413  O 3   py      -0.00000  -0.00001  -0.00000   0.00008  -0.00003   0.00050
 414  O 3   pz       0.00001   0.00000   0.00001  -0.00009   0.00001  -0.00021
 415  O 3   px       0.00000   0.00011  -0.00006  -0.00924  -0.00021   0.00542
 416  O 3   py       0.00002   0.00002  -0.00000  -0.00105  -0.00008   0.00137
 417  O 3   pz      -0.00008  -0.00008  -0.00004   0.00134   0.00000  -0.00124
 418  O 3   px      -0.00023  -0.00005  -0.00028  -0.00081  -0.00031   0.00390
 419  O 3   py       0.00006  -0.00015   0.00002   0.00011  -0.00008   0.00162
 420  O 3   pz      -0.00017  -0.00034  -0.00030   0.00091   0.00013  -0.00056
 421  O 3   px      -0.00007  -0.00004  -0.00006   0.00007  -0.00007   0.00081
 422  O 3   py      -0.00003  -0.00002   0.00004  -0.00000  -0.00009   0.00033
 423  O 3   pz      -0.00003  -0.00013  -0.00013   0.00017   0.00012   0.00028
 424  O 3   d 1      0.00000  -0.00000  -0.00000   0.00002  -0.00000   0.00001
 425  O 3   d 2     -0.00000  -0.00000  -0.00000  -0.00012   0.00000  -0.00001
 426  O 3   d 3     -0.00000  -0.00000   0.00000   0.00020  -0.00000   0.00002
 427  O 3   d 4      0.00000  -0.00000  -0.00000   0.00005  -0.00000   0.00002
 428  O 3   d 5     -0.00000  -0.00000  -0.00000   0.00015  -0.00000   0.00003
 429  O 3   d 1     -0.00000   0.00000   0.00000  -0.00005  -0.00000   0.00001
 430  O 3   d 2      0.00000   0.00001   0.00001   0.00020   0.00000  -0.00012
 431  O 3   d 3     -0.00000  -0.00000   0.00000  -0.00030  -0.00001   0.00012
 432  O 3   d 4     -0.00000   0.00000   0.00001  -0.00007  -0.00000   0.00002
 433  O 3   d 5      0.00001   0.00001  -0.00000  -0.00029  -0.00000   0.00014
 434  O 3   d 1      0.00001  -0.00003  -0.00001  -0.00001  -0.00001   0.00044
 435  O 3   d 2     -0.00002  -0.00004  -0.00002   0.00156   0.00002  -0.00017
 436  O 3   d 3      0.00003   0.00007  -0.00009  -0.00298   0.00004   0.00064
 437  O 3   d 4     -0.00003  -0.00003  -0.00007  -0.00095   0.00002  -0.00015
 438  O 3   d 5     -0.00003  -0.00001  -0.00001  -0.00142  -0.00003   0.00052
 439  O 3   d 1     -0.00001  -0.00016   0.00001   0.00022  -0.00002   0.00053
 440  O 3   d 2     -0.00001  -0.00009  -0.00005  -0.00017   0.00010  -0.00001
 441  O 3   d 3      0.00004   0.00020   0.00002   0.00004   0.00012   0.00036
 442  O 3   d 4     -0.00004   0.00003  -0.00008   0.00018   0.00007   0.00007
 443  O 3   d 5     -0.00008  -0.00005  -0.00000   0.00053  -0.00009   0.00045
 444  O 3   f 1     -0.00000  -0.00000   0.00000  -0.00000   0.00000  -0.00001
 445  O 3   f 2      0.00000   0.00000   0.00000  -0.00006   0.00000  -0.00001
 446  O 3   f 3     -0.00000   0.00000   0.00000   0.00004  -0.00000  -0.00000
 447  O 3   f 4     -0.00000   0.00000   0.00000  -0.00007   0.00000  -0.00001
 448  O 3   f 5      0.00000  -0.00000   0.00001   0.00015  -0.00000  -0.00000
 449  O 3   f 6      0.00000   0.00000   0.00000   0.00006  -0.00000   0.00000
 450  O 3   f 7      0.00000   0.00000   0.00000   0.00003  -0.00000  -0.00000
 451  O 3   f 1      0.00000   0.00000  -0.00000   0.00004  -0.00000   0.00006
 452  O 3   f 2     -0.00000  -0.00001  -0.00001   0.00048   0.00000  -0.00002
 453  O 3   f 3      0.00000  -0.00001  -0.00000  -0.00034  -0.00000   0.00009
 454  O 3   f 4      0.00000  -0.00001  -0.00001   0.00058  -0.00000  -0.00005
 455  O 3   f 5      0.00000   0.00001  -0.00003  -0.00125  -0.00000   0.00022
 456  O 3   f 6     -0.00000  -0.00000  -0.00001  -0.00050  -0.00000   0.00005
 457  O 3   f 7     -0.00000  -0.00000  -0.00000  -0.00025   0.00000   0.00006
 458  O 3   f 1     -0.00001  -0.00007  -0.00001   0.00005   0.00001   0.00013
 459  O 3   f 2      0.00000  -0.00002  -0.00003  -0.00023   0.00004   0.00004
 460  O 3   f 3      0.00001  -0.00000   0.00003   0.00008  -0.00003   0.00015
 461  O 3   f 4      0.00000  -0.00003   0.00001  -0.00009  -0.00003   0.00004
 462  O 3   f 5     -0.00000   0.00006   0.00001   0.00045   0.00001   0.00038
 463  O 3   f 6     -0.00000   0.00004   0.00001   0.00017  -0.00001   0.00014
 464  O 3   f 7     -0.00002  -0.00000   0.00002   0.00017  -0.00003   0.00013
 465  O 3   g 1      0.00000   0.00000  -0.00000   0.00001  -0.00000   0.00000
 466  O 3   g 2     -0.00000  -0.00000  -0.00000   0.00006  -0.00000  -0.00001
 467  O 3   g 3      0.00000   0.00000  -0.00000  -0.00004   0.00000   0.00001
 468  O 3   g 4     -0.00000  -0.00000   0.00000   0.00005   0.00000  -0.00000
 469  O 3   g 5     -0.00000  -0.00000   0.00000   0.00005  -0.00000  -0.00000
 470  O 3   g 6     -0.00000   0.00000  -0.00000   0.00007   0.00000  -0.00001
 471  O 3   g 7      0.00000   0.00000  -0.00000  -0.00012  -0.00000   0.00001
 472  O 3   g 8     -0.00000  -0.00000  -0.00000  -0.00007   0.00000   0.00000
 473  O 3   g 9      0.00000  -0.00000  -0.00000  -0.00002   0.00000   0.00000
 474  O 3   g 1     -0.00000  -0.00002  -0.00000   0.00001   0.00000   0.00002
 475  O 3   g 2      0.00000   0.00000  -0.00001  -0.00002   0.00001   0.00001
 476  O 3   g 3     -0.00000  -0.00001   0.00001   0.00002  -0.00001   0.00007
 477  O 3   g 4     -0.00000   0.00001  -0.00000   0.00009  -0.00000  -0.00002
 478  O 3   g 5      0.00000   0.00001  -0.00001  -0.00009   0.00001  -0.00007
 479  O 3   g 6      0.00000  -0.00002  -0.00001  -0.00004   0.00000  -0.00003
 480  O 3   g 7     -0.00000   0.00001   0.00000   0.00002  -0.00000   0.00010
 481  O 3   g 8     -0.00000   0.00001   0.00001   0.00000  -0.00000   0.00006
 482  O 3   g 9     -0.00000   0.00000   0.00001   0.00001  -0.00000   0.00003
 483  O 3   h 1     -0.00000  -0.00000  -0.00000   0.00001   0.00000   0.00000
 484  O 3   h 2      0.00000  -0.00000  -0.00000   0.00002   0.00000  -0.00000
 485  O 3   h 3     -0.00000  -0.00000  -0.00000   0.00000  -0.00000   0.00001
 486  O 3   h 4     -0.00000   0.00000  -0.00000   0.00006   0.00000  -0.00001
 487  O 3   h 5      0.00000  -0.00000   0.00000  -0.00004   0.00000   0.00000
 488  O 3   h 6     -0.00000   0.00000   0.00000   0.00003  -0.00000   0.00000
 489  O 3   h 7      0.00000   0.00000  -0.00000  -0.00004   0.00000  -0.00000
 490  O 3   h 8      0.00000  -0.00000  -0.00000  -0.00002   0.00000  -0.00000
 491  O 3   h 9     -0.00000   0.00000   0.00000  -0.00004  -0.00000   0.00002
 492  O 3   h10     -0.00000   0.00000   0.00000  -0.00003  -0.00000   0.00001
 493  O 3   h11     -0.00000   0.00000   0.00000  -0.00001  -0.00000   0.00000
 494  H 5   s       -0.00000   0.00001   0.00000  -0.00022  -0.00010   0.00219
 495  H 5   s        0.00003   0.00001  -0.00004  -0.00165  -0.00018   0.00478
 496  H 5   s       -0.00015  -0.00055   0.00002   0.01128  -0.00036   0.00591
 497  H 5   s        0.00003  -0.00018  -0.00011   0.00196   0.00033   0.00186
 498  H 5   s       -0.00002  -0.00008  -0.00006   0.00016   0.00011   0.00066
 499  H 5   px       0.00000   0.00001  -0.00000   0.00009  -0.00000  -0.00003
 500  H 5   py      -0.00000  -0.00000  -0.00000   0.00005  -0.00000  -0.00002
 501  H 5   pz       0.00000   0.00000   0.00000  -0.00020  -0.00000   0.00014
 502  H 5   px      -0.00000  -0.00003   0.00001  -0.00001   0.00000  -0.00012
 503  H 5   py       0.00000  -0.00000   0.00001  -0.00002   0.00001  -0.00009
 504  H 5   pz      -0.00000  -0.00001  -0.00001   0.00014  -0.00002   0.00041
 505  H 5   px       0.00007   0.00016  -0.00007  -0.00421   0.00002   0.00040
 506  H 5   py       0.00001   0.00009  -0.00006  -0.00219   0.00003   0.00020
 507  H 5   pz      -0.00005  -0.00013   0.00004   0.00749   0.00002   0.00014
 508  H 5   px       0.00009   0.00049  -0.00004  -0.00131   0.00015   0.00010
 509  H 5   py       0.00001   0.00026  -0.00001  -0.00076   0.00009  -0.00015
 510  H 5   pz      -0.00006  -0.00036  -0.00004   0.00217   0.00015   0.00015
 511  H 5   d 1     -0.00000   0.00001  -0.00000  -0.00003   0.00000  -0.00000
 512  H 5   d 2     -0.00000  -0.00001   0.00000   0.00007  -0.00000  -0.00003
 513  H 5   d 3      0.00000   0.00000  -0.00000  -0.00013  -0.00000   0.00006
 514  H 5   d 4     -0.00000   0.00000   0.00000   0.00013  -0.00000  -0.00003
 515  H 5   d 5      0.00000  -0.00000  -0.00000  -0.00003   0.00000   0.00000
 516  H 5   d 1     -0.00000  -0.00005   0.00002   0.00049  -0.00002   0.00012
 517  H 5   d 2      0.00001   0.00006  -0.00002  -0.00097   0.00002  -0.00001
 518  H 5   d 3     -0.00001  -0.00000  -0.00000   0.00169   0.00001  -0.00010
 519  H 5   d 4      0.00001   0.00002  -0.00001  -0.00183   0.00002  -0.00008
 520  H 5   d 5     -0.00000   0.00000   0.00002   0.00038  -0.00001   0.00007
 521  H 5   d 1     -0.00001   0.00009   0.00003   0.00074  -0.00007   0.00014
 522  H 5   d 2     -0.00000  -0.00002  -0.00003  -0.00130   0.00004  -0.00007
 523  H 5   d 3     -0.00002  -0.00006   0.00000   0.00183   0.00008  -0.00003
 524  H 5   d 4      0.00006   0.00009  -0.00006  -0.00243   0.00006   0.00010
 525  H 5   d 5     -0.00002   0.00004  -0.00003   0.00047   0.00000   0.00011
 526  H 5   f 1      0.00000  -0.00000   0.00000  -0.00004  -0.00000   0.00001
 527  H 5   f 2     -0.00000   0.00000   0.00000   0.00012   0.00000  -0.00000
 528  H 5   f 3      0.00000   0.00001   0.00000  -0.00012   0.00000  -0.00001
 529  H 5   f 4      0.00000  -0.00000  -0.00000   0.00009  -0.00000   0.00001
 530  H 5   f 5      0.00000   0.00000   0.00000  -0.00023   0.00000  -0.00002
 531  H 5   f 6     -0.00000  -0.00000   0.00000   0.00009  -0.00000  -0.00000
 532  H 5   f 7      0.00000   0.00000   0.00000  -0.00001  -0.00000   0.00000
 533  H 5   f 1     -0.00000   0.00003  -0.00001  -0.00015   0.00001  -0.00002
 534  H 5   f 2      0.00000  -0.00003   0.00002   0.00055  -0.00002   0.00003
 535  H 5   f 3      0.00000   0.00000  -0.00001  -0.00064   0.00001   0.00002
 536  H 5   f 4     -0.00000   0.00002  -0.00001   0.00045   0.00002  -0.00003
 537  H 5   f 5      0.00002   0.00002  -0.00002  -0.00117   0.00001   0.00006
 538  H 5   f 6     -0.00000   0.00002  -0.00000   0.00038  -0.00001   0.00004
 539  H 5   f 7     -0.00000  -0.00002  -0.00000  -0.00006   0.00000  -0.00001
 540  H 5   g 1     -0.00000   0.00000   0.00000   0.00002  -0.00000  -0.00000
 541  H 5   g 2      0.00000  -0.00000  -0.00000  -0.00005   0.00000  -0.00000
 542  H 5   g 3     -0.00000  -0.00000   0.00000   0.00011  -0.00000   0.00001
 543  H 5   g 4     -0.00000   0.00000  -0.00000  -0.00007   0.00000  -0.00000
 544  H 5   g 5      0.00000   0.00000  -0.00000  -0.00000   0.00000   0.00000
 545  H 5   g 6      0.00000   0.00001  -0.00000  -0.00014   0.00000   0.00000
 546  H 5   g 7     -0.00000   0.00000  -0.00000   0.00007  -0.00000   0.00001
 547  H 5   g 8      0.00000  -0.00000   0.00000  -0.00002  -0.00000  -0.00000
 548  H 5   g 9     -0.00000  -0.00000  -0.00000   0.00000   0.00000  -0.00000
 549  H 6   s       -0.00000   0.00000  -0.00000  -0.00021  -0.00012   0.00264
 550  H 6   s       -0.00000  -0.00004  -0.00006  -0.00183  -0.00022   0.00522
 551  H 6   s        0.00024  -0.00011   0.00042   0.01100  -0.00042   0.01042
 552  H 6   s        0.00029   0.00016   0.00072   0.00160  -0.00049   0.00203
 553  H 6   s       -0.00004  -0.00000   0.00013  -0.00015  -0.00031   0.00099
 554  H 6   px       0.00000  -0.00000  -0.00000   0.00015   0.00000  -0.00007
 555  H 6   py       0.00000  -0.00000  -0.00001  -0.00003   0.00000   0.00003
 556  H 6   pz      -0.00000  -0.00000  -0.00001   0.00014   0.00000  -0.00009
 557  H 6   px      -0.00000   0.00002   0.00003  -0.00001  -0.00000  -0.00020
 558  H 6   py      -0.00000  -0.00001   0.00002   0.00003  -0.00001   0.00013
 559  H 6   pz       0.00000   0.00003   0.00003  -0.00004   0.00001  -0.00022
 560  H 6   px      -0.00005   0.00007  -0.00021  -0.00688   0.00006  -0.00031
 561  H 6   py       0.00003   0.00009   0.00000   0.00084  -0.00001  -0.00002
 562  H 6   pz      -0.00009  -0.00002  -0.00011  -0.00599  -0.00004  -0.00074
 563  H 6   px      -0.00005  -0.00007  -0.00046  -0.00177   0.00018  -0.00036
 564  H 6   py       0.00002   0.00012   0.00020   0.00011  -0.00018  -0.00043
 565  H 6   pz      -0.00011  -0.00001  -0.00058  -0.00151   0.00017  -0.00063
 566  H 6   d 1     -0.00000  -0.00000   0.00001   0.00004  -0.00000  -0.00002
 567  H 6   d 2      0.00000   0.00000  -0.00000   0.00004   0.00000  -0.00003
 568  H 6   d 3     -0.00000  -0.00000   0.00001  -0.00002  -0.00000   0.00000
 569  H 6   d 4     -0.00000   0.00001   0.00000  -0.00017  -0.00000   0.00001
 570  H 6   d 5      0.00000  -0.00000  -0.00001  -0.00010   0.00000   0.00000
 571  H 6   d 1      0.00000   0.00000  -0.00005  -0.00041   0.00001   0.00013
 572  H 6   d 2     -0.00001  -0.00001   0.00001  -0.00040  -0.00002   0.00013
 573  H 6   d 3      0.00001  -0.00001  -0.00005   0.00038   0.00000   0.00020
 574  H 6   d 4      0.00002  -0.00004   0.00002   0.00230  -0.00002   0.00051
 575  H 6   d 5      0.00000   0.00000   0.00005   0.00135  -0.00002   0.00026
 576  H 6   d 1     -0.00001  -0.00009  -0.00000  -0.00033  -0.00001   0.00042
 577  H 6   d 2     -0.00001  -0.00008  -0.00009  -0.00023   0.00006   0.00028
 578  H 6   d 3      0.00003   0.00003   0.00002   0.00058   0.00004   0.00022
 579  H 6   d 4      0.00001   0.00007   0.00005   0.00324  -0.00007   0.00083
 580  H 6   d 5     -0.00001  -0.00005  -0.00002   0.00177  -0.00004   0.00039
 581  H 6   f 1      0.00000   0.00000   0.00000   0.00004   0.00000   0.00001
 582  H 6   f 2      0.00000  -0.00000   0.00000   0.00006  -0.00000   0.00002
 583  H 6   f 3     -0.00000  -0.00000   0.00000   0.00002   0.00000   0.00001
 584  H 6   f 4      0.00000   0.00000   0.00000   0.00010   0.00000  -0.00001
 585  H 6   f 5     -0.00000   0.00000   0.00000  -0.00016  -0.00000   0.00001
 586  H 6   f 6     -0.00000  -0.00000  -0.00000  -0.00023   0.00000  -0.00000
 587  H 6   f 7     -0.00000  -0.00000   0.00000  -0.00011  -0.00000  -0.00000
 588  H 6   f 1     -0.00000  -0.00000   0.00001   0.00022  -0.00001  -0.00008
 589  H 6   f 2      0.00000   0.00003   0.00001   0.00035  -0.00001  -0.00013
 590  H 6   f 3      0.00000   0.00002   0.00000   0.00012  -0.00001  -0.00005
 591  H 6   f 4     -0.00001   0.00000   0.00004   0.00041  -0.00002   0.00005
 592  H 6   f 5     -0.00001  -0.00001  -0.00000  -0.00083   0.00001  -0.00023
 593  H 6   f 6     -0.00000   0.00002  -0.00003  -0.00110   0.00001  -0.00021
 594  H 6   f 7      0.00000   0.00001  -0.00002  -0.00055   0.00001  -0.00011
 595  H 6   g 1     -0.00000   0.00000  -0.00000  -0.00002  -0.00000   0.00001
 596  H 6   g 2     -0.00000  -0.00000  -0.00001  -0.00005   0.00000   0.00001
 597  H 6   g 3     -0.00000  -0.00000  -0.00000  -0.00004   0.00000   0.00001
 598  H 6   g 4     -0.00000  -0.00000   0.00000   0.00000   0.00000  -0.00000
 599  H 6   g 5      0.00000  -0.00000   0.00000  -0.00009   0.00000  -0.00001
 600  H 6   g 6      0.00000  -0.00000  -0.00001  -0.00000   0.00000   0.00001
 601  H 6   g 7      0.00000  -0.00000  -0.00001   0.00012  -0.00000   0.00003
 602  H 6   g 8     -0.00000  -0.00000  -0.00000   0.00012  -0.00000   0.00002
 603  H 6   g 9     -0.00000  -0.00000   0.00000   0.00005  -0.00000   0.00001
 604  O 4   s        0.00002  -0.00001  -0.97849   0.00001   0.00106  -0.01658
 605  O 4   s        0.00001   0.00001  -0.03093   0.00001  -0.01609   0.25211
 606  O 4   s        0.00002   0.00002  -0.08506   0.00003  -0.00056   0.00683
 607  O 4   s        0.00007   0.00002   0.01527  -0.00044  -0.01795   0.28950
 608  O 4   s       -0.00117  -0.00025   0.01630   0.00213  -0.02334   0.39024
 609  O 4   s       -0.00088  -0.00081   0.00283   0.00209  -0.01183   0.15069
 610  O 4   px       0.00000  -0.00000  -0.00115   0.00001  -0.00147   0.02044
 611  O 4   py      -0.00000  -0.00000  -0.00003  -0.00000  -0.00060   0.00153
 612  O 4   pz      -0.00000  -0.00000  -0.00010   0.00000   0.00017   0.00145
 613  O 4   px       0.00001   0.00001  -0.00069  -0.00007  -0.00248   0.03332
 614  O 4   py       0.00001   0.00000  -0.00017   0.00001  -0.00091   0.00244
 615  O 4   pz       0.00000   0.00000  -0.00002  -0.00002   0.00033   0.00234
 616  O 4   px      -0.00018  -0.00007   0.00906   0.00028  -0.00330   0.05647
 617  O 4   py      -0.00011   0.00005   0.00167  -0.00004  -0.00113   0.00402
 618  O 4   pz       0.00002  -0.00005   0.00026   0.00005  -0.00010   0.00443
 619  O 4   px      -0.00049  -0.00039   0.00121   0.00155  -0.00228   0.03601
 620  O 4   py       0.00018  -0.00006  -0.00026  -0.00021  -0.00256   0.00240
 621  O 4   pz      -0.00004  -0.00008   0.00021   0.00075   0.00028   0.00087
 622  O 4   px      -0.00010  -0.00013   0.00022   0.00015  -0.00071   0.00447
 623  O 4   py       0.00004   0.00003  -0.00046  -0.00017  -0.00071   0.00058
 624  O 4   pz       0.00001   0.00003   0.00023  -0.00001   0.00019   0.00026
 625  O 4   d 1      0.00000  -0.00000  -0.00003  -0.00000  -0.00002   0.00004
 626  O 4   d 2     -0.00000   0.00000   0.00026  -0.00000   0.00002  -0.00022
 627  O 4   d 3      0.00000   0.00000   0.00008   0.00000   0.00002  -0.00011
 628  O 4   d 4     -0.00000   0.00000  -0.00004   0.00000   0.00000   0.00003
 629  O 4   d 5      0.00000  -0.00000   0.00002  -0.00000   0.00001   0.00006
 630  O 4   d 1     -0.00001   0.00000   0.00007   0.00001  -0.00002   0.00021
 631  O 4   d 2     -0.00000  -0.00000  -0.00044   0.00002   0.00011  -0.00195
 632  O 4   d 3     -0.00000  -0.00001  -0.00015  -0.00000   0.00003  -0.00070
 633  O 4   d 4      0.00001  -0.00000   0.00008  -0.00002   0.00002   0.00032
 634  O 4   d 5     -0.00001   0.00000   0.00000  -0.00000  -0.00007   0.00013
 635  O 4   d 1      0.00003   0.00001   0.00054  -0.00003  -0.00012   0.00094
 636  O 4   d 2      0.00010   0.00004  -0.00325  -0.00019   0.00068  -0.00910
 637  O 4   d 3      0.00003   0.00003  -0.00080  -0.00003   0.00034  -0.00336
 638  O 4   d 4     -0.00004  -0.00000  -0.00001   0.00016  -0.00029   0.00129
 639  O 4   d 5      0.00007  -0.00000  -0.00076   0.00003   0.00051   0.00036
 640  O 4   d 1      0.00016  -0.00011  -0.00013  -0.00028  -0.00053   0.00107
 641  O 4   d 2      0.00006   0.00005   0.00086  -0.00048   0.00072  -0.00538
 642  O 4   d 3     -0.00002   0.00008   0.00019  -0.00022   0.00050  -0.00135
 643  O 4   d 4     -0.00006   0.00001   0.00013   0.00004  -0.00024   0.00144
 644  O 4   d 5     -0.00013  -0.00007   0.00023  -0.00000   0.00096  -0.00057
 645  O 4   f 1     -0.00000  -0.00000  -0.00000   0.00000  -0.00001  -0.00001
 646  O 4   f 2     -0.00000  -0.00000   0.00015   0.00001   0.00000  -0.00004
 647  O 4   f 3      0.00000   0.00000   0.00002   0.00000  -0.00000  -0.00001
 648  O 4   f 4     -0.00000   0.00000  -0.00001   0.00000  -0.00000   0.00001
 649  O 4   f 5      0.00000   0.00000  -0.00002   0.00000  -0.00000   0.00001
 650  O 4   f 6      0.00000  -0.00000  -0.00001  -0.00000   0.00001  -0.00000
 651  O 4   f 7     -0.00000  -0.00000   0.00011   0.00000  -0.00001  -0.00004
 652  O 4   f 1      0.00002   0.00001   0.00002  -0.00002   0.00008   0.00004
 653  O 4   f 2      0.00001   0.00001  -0.00127  -0.00004   0.00013  -0.00236
 654  O 4   f 3     -0.00000  -0.00000  -0.00019  -0.00002   0.00004  -0.00032
 655  O 4   f 4      0.00000  -0.00000   0.00008  -0.00000  -0.00000   0.00001
 656  O 4   f 5     -0.00000  -0.00001   0.00013  -0.00001   0.00001   0.00009
 657  O 4   f 6     -0.00001  -0.00000   0.00009   0.00001  -0.00009   0.00023
 658  O 4   f 7      0.00002   0.00000  -0.00084  -0.00001   0.00014  -0.00124
 659  O 4   f 1      0.00004  -0.00002   0.00006  -0.00006   0.00019  -0.00013
 660  O 4   f 2      0.00001   0.00005   0.00059  -0.00012   0.00023  -0.00342
 661  O 4   f 3     -0.00005   0.00001   0.00001  -0.00003   0.00014  -0.00055
 662  O 4   f 4      0.00004  -0.00004  -0.00004  -0.00002  -0.00006   0.00010
 663  O 4   f 5     -0.00002   0.00002  -0.00009   0.00010   0.00010  -0.00014
 664  O 4   f 6     -0.00001  -0.00002  -0.00017   0.00009  -0.00027   0.00005
 665  O 4   f 7     -0.00004   0.00001   0.00036  -0.00007   0.00045  -0.00197
 666  O 4   g 1      0.00000   0.00000  -0.00002   0.00000   0.00000  -0.00002
 667  O 4   g 2     -0.00000  -0.00000  -0.00010   0.00000   0.00001  -0.00012
 668  O 4   g 3      0.00000   0.00000  -0.00003   0.00000   0.00000  -0.00004
 669  O 4   g 4     -0.00000  -0.00000   0.00008  -0.00000  -0.00001   0.00008
 670  O 4   g 5      0.00000  -0.00000  -0.00006  -0.00000   0.00000  -0.00005
 671  O 4   g 6     -0.00000   0.00000   0.00002  -0.00000  -0.00000   0.00001
 672  O 4   g 7     -0.00000  -0.00000  -0.00000   0.00000  -0.00000   0.00000
 673  O 4   g 8     -0.00000   0.00000   0.00002  -0.00000   0.00000   0.00001
 674  O 4   g 9      0.00000   0.00000  -0.00011  -0.00000   0.00000  -0.00011
 675  O 4   g 1     -0.00000   0.00000   0.00002  -0.00003   0.00009  -0.00010
 676  O 4   g 2     -0.00000   0.00001   0.00009  -0.00004  -0.00002  -0.00069
 677  O 4   g 3     -0.00002  -0.00001  -0.00002  -0.00003   0.00003  -0.00019
 678  O 4   g 4      0.00001  -0.00000   0.00001   0.00002  -0.00006   0.00054
 679  O 4   g 5      0.00000   0.00001  -0.00003  -0.00001   0.00001  -0.00035
 680  O 4   g 6      0.00002  -0.00001   0.00001   0.00000   0.00000   0.00008
 681  O 4   g 7      0.00000   0.00000  -0.00006   0.00000   0.00001   0.00003
 682  O 4   g 8      0.00001  -0.00001  -0.00003   0.00001  -0.00007   0.00009
 683  O 4   g 9     -0.00001   0.00000   0.00003  -0.00001   0.00006  -0.00069
 684  O 4   h 1     -0.00000   0.00000  -0.00001  -0.00000   0.00001  -0.00003
 685  O 4   h 2     -0.00000   0.00000   0.00004  -0.00000  -0.00001  -0.00000
 686  O 4   h 3     -0.00000  -0.00000  -0.00001  -0.00000   0.00001  -0.00004
 687  O 4   h 4      0.00000  -0.00000   0.00003   0.00000  -0.00001   0.00011
 688  O 4   h 5     -0.00000   0.00000   0.00001  -0.00000   0.00000   0.00002
 689  O 4   h 6     -0.00000   0.00000  -0.00002  -0.00000   0.00000  -0.00004
 690  O 4   h 7     -0.00000   0.00000  -0.00004  -0.00000   0.00001  -0.00010
 691  O 4   h 8      0.00000  -0.00000  -0.00001  -0.00000   0.00001  -0.00001
 692  O 4   h 9      0.00000   0.00000  -0.00005  -0.00000   0.00001  -0.00008
 693  O 4   h10      0.00000  -0.00000  -0.00000  -0.00000  -0.00000   0.00001
 694  O 4   h11     -0.00000  -0.00000  -0.00001  -0.00000  -0.00000  -0.00009
 695  H 7   s        0.00000  -0.00000   0.00020   0.00001  -0.00220   0.02078
 696  H 7   s       -0.00013   0.00002   0.00196   0.00001  -0.00425   0.04648
 697  H 7   s        0.00045   0.00039  -0.01098  -0.00096  -0.00766   0.05428
 698  H 7   s        0.00017  -0.00003  -0.00209  -0.00059  -0.00009   0.01528
 699  H 7   s        0.00006  -0.00005   0.00050   0.00010   0.00065   0.00059
 700  H 7   px      -0.00001   0.00000  -0.00013  -0.00001   0.00005  -0.00088
 701  H 7   py      -0.00001   0.00000  -0.00015  -0.00000   0.00005  -0.00121
 702  H 7   pz       0.00001  -0.00001   0.00009  -0.00001  -0.00004   0.00073
 703  H 7   px       0.00006  -0.00002   0.00000   0.00003   0.00012  -0.00262
 704  H 7   py       0.00007  -0.00002   0.00003   0.00002  -0.00000  -0.00353
 705  H 7   pz      -0.00004   0.00003  -0.00002   0.00003  -0.00010   0.00224
 706  H 7   px      -0.00025  -0.00003   0.00545   0.00025  -0.00059  -0.00248
 707  H 7   py      -0.00023  -0.00008   0.00625   0.00026   0.00018  -0.00529
 708  H 7   pz       0.00009   0.00002  -0.00387  -0.00024   0.00023   0.00301
 709  H 7   px      -0.00025   0.00009   0.00132   0.00012  -0.00100   0.00033
 710  H 7   py      -0.00082   0.00014   0.00204   0.00026   0.00075  -0.00232
 711  H 7   pz       0.00025  -0.00000  -0.00131  -0.00017   0.00062   0.00111
 712  H 7   d 1     -0.00001  -0.00000   0.00015   0.00000  -0.00002   0.00044
 713  H 7   d 2     -0.00001  -0.00001  -0.00011   0.00000   0.00000  -0.00038
 714  H 7   d 3      0.00000   0.00001  -0.00005   0.00000  -0.00000  -0.00014
 715  H 7   d 4      0.00000   0.00000  -0.00010   0.00000   0.00001  -0.00027
 716  H 7   d 5      0.00000   0.00000   0.00000   0.00000  -0.00003  -0.00013
 717  H 7   d 1      0.00005   0.00004  -0.00199  -0.00005  -0.00023   0.00050
 718  H 7   d 2      0.00002   0.00001   0.00139   0.00002   0.00029  -0.00048
 719  H 7   d 3     -0.00003  -0.00004   0.00067   0.00000   0.00018  -0.00016
 720  H 7   d 4     -0.00001  -0.00002   0.00123   0.00003   0.00005  -0.00026
 721  H 7   d 5     -0.00001  -0.00001   0.00013  -0.00002   0.00042  -0.00013
 722  H 7   d 1      0.00009  -0.00010  -0.00269  -0.00000  -0.00060   0.00009
 723  H 7   d 2     -0.00009  -0.00005   0.00196   0.00011   0.00047  -0.00085
 724  H 7   d 3     -0.00002   0.00008   0.00090   0.00004   0.00047   0.00007
 725  H 7   d 4     -0.00006   0.00004   0.00162   0.00011  -0.00019   0.00006
 726  H 7   d 5      0.00009   0.00000   0.00060   0.00003   0.00098  -0.00032
 727  H 7   f 1     -0.00000  -0.00000   0.00012   0.00001   0.00001  -0.00003
 728  H 7   f 2      0.00000  -0.00000  -0.00021  -0.00000   0.00001   0.00008
 729  H 7   f 3      0.00000  -0.00000  -0.00002   0.00000   0.00001  -0.00001
 730  H 7   f 4     -0.00000   0.00000   0.00015  -0.00000  -0.00001  -0.00007
 731  H 7   f 5      0.00000   0.00000  -0.00002   0.00000  -0.00000   0.00001
 732  H 7   f 6      0.00000  -0.00000   0.00002   0.00000  -0.00001  -0.00003
 733  H 7   f 7     -0.00000   0.00000  -0.00015  -0.00000   0.00001   0.00007
 734  H 7   f 1     -0.00002   0.00000   0.00057  -0.00002  -0.00019  -0.00010
 735  H 7   f 2      0.00003   0.00001  -0.00112  -0.00003  -0.00008   0.00020
 736  H 7   f 3      0.00001   0.00001  -0.00007   0.00000  -0.00010  -0.00000
 737  H 7   f 4     -0.00002  -0.00001   0.00073   0.00003   0.00013  -0.00014
 738  H 7   f 5      0.00001  -0.00001  -0.00011  -0.00000  -0.00004   0.00003
 739  H 7   f 6      0.00000   0.00000   0.00017  -0.00002   0.00023  -0.00011
 740  H 7   f 7      0.00004  -0.00001  -0.00077   0.00001  -0.00026   0.00007
 741  H 7   g 1      0.00001   0.00000   0.00001   0.00000   0.00003  -0.00001
 742  H 7   g 2     -0.00001   0.00000   0.00009   0.00000  -0.00002  -0.00002
 743  H 7   g 3      0.00000  -0.00000  -0.00002  -0.00000   0.00001   0.00001
 744  H 7   g 4     -0.00000   0.00000  -0.00009  -0.00000  -0.00002   0.00003
 745  H 7   g 5     -0.00000   0.00000   0.00003   0.00000  -0.00000  -0.00002
 746  H 7   g 6      0.00000   0.00000  -0.00008  -0.00000  -0.00001   0.00003
 747  H 7   g 7      0.00000  -0.00000   0.00001  -0.00000   0.00000  -0.00001
 748  H 7   g 8     -0.00000   0.00000  -0.00012  -0.00000  -0.00003   0.00005
 749  H 7   g 9     -0.00000   0.00000   0.00010  -0.00000   0.00001  -0.00004
 750  H 8   s       -0.00000   0.00000   0.00019   0.00001  -0.00118   0.02047
 751  H 8   s       -0.00005  -0.00004   0.00162   0.00005  -0.00265   0.04622
 752  H 8   s        0.00071   0.00023  -0.00923  -0.00201  -0.00296   0.05537
 753  H 8   s        0.00027   0.00068  -0.00250  -0.00108  -0.00058   0.01582
 754  H 8   s        0.00000  -0.00003  -0.00035   0.00001  -0.00048   0.00233
 755  H 8   px       0.00000  -0.00000  -0.00012  -0.00001   0.00005  -0.00084
 756  H 8   py       0.00000   0.00000   0.00011   0.00000  -0.00006   0.00102
 757  H 8   pz      -0.00000   0.00000  -0.00011  -0.00000   0.00005  -0.00089
 758  H 8   px       0.00000   0.00001  -0.00001   0.00002   0.00015  -0.00268
 759  H 8   py      -0.00001  -0.00002  -0.00001  -0.00000  -0.00019   0.00314
 760  H 8   pz       0.00001   0.00000   0.00002   0.00001   0.00016  -0.00277
 761  H 8   px      -0.00013  -0.00007   0.00476   0.00040   0.00004  -0.00230
 762  H 8   py       0.00023   0.00013  -0.00439  -0.00061  -0.00025   0.00474
 763  H 8   pz      -0.00023  -0.00007   0.00398   0.00043   0.00015  -0.00364
 764  H 8   px      -0.00011  -0.00011   0.00165   0.00030  -0.00017   0.00050
 765  H 8   py       0.00007   0.00024  -0.00150  -0.00031  -0.00025   0.00134
 766  H 8   pz      -0.00009  -0.00025   0.00149   0.00034   0.00010  -0.00089
 767  H 8   d 1     -0.00000   0.00000  -0.00013  -0.00000   0.00002  -0.00039
[...]
 195  H 2   g 3     -0.00057
 196  H 2   g 4      0.00040
 197  H 2   g 5     -0.00030
 198  H 2   g 6     -0.00005
 199  H 2   g 7     -0.00049
 200  H 2   g 8      0.00051
 201  H 2   g 9      0.00004
 202  O 2   s       -0.00082
 203  O 2   s       -0.01974
 204  O 2   s       -0.00410
 205  O 2   s        0.01370
 206  O 2   s       -0.20483
 207  O 2   s       -0.73210
 208  O 2   px      -0.00223
 209  O 2   py       0.01271
 210  O 2   pz       0.00521
 211  O 2   px      -0.00225
 212  O 2   py       0.02306
 213  O 2   pz       0.00859
 214  O 2   px      -0.01985
 215  O 2   py       0.02957
 216  O 2   pz       0.01375
 217  O 2   px      -0.21067
 218  O 2   py      -0.03902
 219  O 2   pz      -0.05154
 220  O 2   px      -0.32625
 221  O 2   py       0.31439
 222  O 2   pz       0.12530
 223  O 2   d 1      0.00022
 224  O 2   d 2     -0.00026
 225  O 2   d 3      0.00003
 226  O 2   d 4      0.00002
 227  O 2   d 5      0.00020
 228  O 2   d 1     -0.00070
 229  O 2   d 2      0.00165
 230  O 2   d 3     -0.00138
 231  O 2   d 4      0.00076
 232  O 2   d 5      0.00074
 233  O 2   d 1      0.00771
 234  O 2   d 2     -0.00874
 235  O 2   d 3      0.00789
 236  O 2   d 4     -0.00024
 237  O 2   d 5     -0.00418
 238  O 2   d 1      0.03641
 239  O 2   d 2     -0.01018
 240  O 2   d 3      0.04941
 241  O 2   d 4      0.01547
 242  O 2   d 5     -0.04988
 243  O 2   f 1      0.00004
 244  O 2   f 2     -0.00016
 245  O 2   f 3     -0.00002
 246  O 2   f 4     -0.00009
 247  O 2   f 5     -0.00005
 248  O 2   f 6     -0.00003
 249  O 2   f 7      0.00004
 250  O 2   f 1      0.00007
 251  O 2   f 2      0.00080
 252  O 2   f 3     -0.00002
 253  O 2   f 4      0.00038
 254  O 2   f 5      0.00045
 255  O 2   f 6      0.00016
 256  O 2   f 7     -0.00037
 257  O 2   f 1      0.00241
 258  O 2   f 2      0.00396
 259  O 2   f 3      0.00092
 260  O 2   f 4      0.00759
 261  O 2   f 5      0.00631
 262  O 2   f 6      0.00170
 263  O 2   f 7     -0.01914
 264  O 2   g 1      0.00010
 265  O 2   g 2      0.00003
 266  O 2   g 3     -0.00004
 267  O 2   g 4     -0.00005
 268  O 2   g 5      0.00003
 269  O 2   g 6     -0.00000
 270  O 2   g 7     -0.00004
 271  O 2   g 8      0.00016
 272  O 2   g 9      0.00006
 273  O 2   g 1     -0.00137
 274  O 2   g 2      0.00006
 275  O 2   g 3      0.00044
 276  O 2   g 4      0.00080
 277  O 2   g 5     -0.00008
 278  O 2   g 6      0.00018
 279  O 2   g 7      0.00045
 280  O 2   g 8     -0.00189
 281  O 2   g 9     -0.00075
 282  O 2   h 1     -0.00008
 283  O 2   h 2     -0.00015
 284  O 2   h 3      0.00006
 285  O 2   h 4     -0.00004
 286  O 2   h 5      0.00004
 287  O 2   h 6     -0.00013
 288  O 2   h 7      0.00005
 289  O 2   h 8      0.00002
 290  O 2   h 9     -0.00009
 291  O 2   h10     -0.00006
 292  O 2   h11      0.00008
 293  H 3   s       -0.00169
 294  H 3   s        0.00059
 295  H 3   s        0.09370
 296  H 3   s       -0.08967
 297  H 3   s       -0.47866
 298  H 3   px      -0.00002
 299  H 3   py      -0.00022
 300  H 3   pz      -0.00006
 301  H 3   px       0.00052
 302  H 3   py      -0.00181
 303  H 3   pz      -0.00129
 304  H 3   px       0.00513
 305  H 3   py      -0.03759
 306  H 3   pz      -0.02006
 307  H 3   px      -0.01510
 308  H 3   py      -0.00524
 309  H 3   pz      -0.00872
 310  H 3   d 1     -0.00002
 311  H 3   d 2      0.00004
 312  H 3   d 3      0.00000
 313  H 3   d 4     -0.00005
 314  H 3   d 5     -0.00015
 315  H 3   d 1     -0.00174
 316  H 3   d 2      0.00300
 317  H 3   d 3     -0.00097
 318  H 3   d 4     -0.00065
 319  H 3   d 5     -0.00215
 320  H 3   d 1      0.00517
 321  H 3   d 2      0.00202
 322  H 3   d 3      0.00104
 323  H 3   d 4      0.00175
 324  H 3   d 5     -0.00243
 325  H 3   f 1      0.00017
 326  H 3   f 2      0.00017
 327  H 3   f 3     -0.00001
 328  H 3   f 4      0.00021
 329  H 3   f 5     -0.00002
 330  H 3   f 6      0.00023
 331  H 3   f 7     -0.00029
 332  H 3   f 1      0.00011
 333  H 3   f 2     -0.00054
 334  H 3   f 3     -0.00001
 335  H 3   f 4     -0.00070
 336  H 3   f 5     -0.00001
 337  H 3   f 6     -0.00017
 338  H 3   f 7      0.00119
 339  H 3   g 1     -0.00008
 340  H 3   g 2      0.00001
 341  H 3   g 3      0.00001
 342  H 3   g 4      0.00009
 343  H 3   g 5      0.00007
 344  H 3   g 6     -0.00002
 345  H 3   g 7      0.00001
 346  H 3   g 8     -0.00005
 347  H 3   g 9      0.00006
 348  H 4   s        0.00462
 349  H 4   s        0.01016
 350  H 4   s        0.17740
 351  H 4   s        0.89589
 352  H 4   s        0.00852
 353  H 4   px      -0.00068
 354  H 4   py       0.00027
 355  H 4   pz       0.00005
 356  H 4   px       0.00702
 357  H 4   py      -0.00109
 358  H 4   pz       0.00044
 359  H 4   px      -0.07740
 360  H 4   py       0.01368
 361  H 4   pz      -0.00038
 362  H 4   px      -0.22898
 363  H 4   py      -0.02583
 364  H 4   pz      -0.04257
 365  H 4   d 1      0.00035
 366  H 4   d 2      0.00022
 367  H 4   d 3     -0.00005
 368  H 4   d 4      0.00041
 369  H 4   d 5     -0.00010
 370  H 4   d 1     -0.00343
 371  H 4   d 2     -0.00103
 372  H 4   d 3     -0.00162
 373  H 4   d 4     -0.00250
 374  H 4   d 5      0.00335
 375  H 4   d 1     -0.00017
 376  H 4   d 2      0.00264
 377  H 4   d 3     -0.01997
 378  H 4   d 4      0.01055
 379  H 4   d 5      0.03383
 380  H 4   f 1      0.00031
 381  H 4   f 2     -0.00002
 382  H 4   f 3     -0.00009
 383  H 4   f 4     -0.00007
 384  H 4   f 5      0.00027
 385  H 4   f 6      0.00019
 386  H 4   f 7     -0.00021
 387  H 4   f 1      0.00065
 388  H 4   f 2     -0.00014
 389  H 4   f 3     -0.00018
 390  H 4   f 4     -0.00005
 391  H 4   f 5      0.00167
 392  H 4   f 6     -0.00059
 393  H 4   f 7     -0.00272
 394  H 4   g 1     -0.00009
 395  H 4   g 2      0.00008
 396  H 4   g 3      0.00005
 397  H 4   g 4     -0.00002
 398  H 4   g 5      0.00006
 399  H 4   g 6      0.00003
 400  H 4   g 7     -0.00009
 401  H 4   g 8     -0.00001
 402  H 4   g 9      0.00011
 403  O 3   s        0.00237
 404  O 3   s       -0.07834
 405  O 3   s       -0.00499
 406  O 3   s       -0.01415
 407  O 3   s       -0.37391
 408  O 3   s       -1.93478
 409  O 3   px      -0.01094
 410  O 3   py      -0.00268
 411  O 3   pz       0.01261
 412  O 3   px      -0.00440
 413  O 3   py      -0.00164
 414  O 3   pz       0.01817
 415  O 3   px      -0.06254
 416  O 3   py      -0.01541
 417  O 3   pz       0.04388
 418  O 3   px      -0.56617
 419  O 3   py      -0.10757
 420  O 3   pz       0.01882
 421  O 3   px      -0.22699
 422  O 3   py      -0.07606
 423  O 3   pz       0.18946
 424  O 3   d 1     -0.00032
 425  O 3   d 2      0.00033
 426  O 3   d 3     -0.00014
 427  O 3   d 4     -0.00004
 428  O 3   d 5     -0.00071
 429  O 3   d 1      0.00126
 430  O 3   d 2     -0.00298
 431  O 3   d 3      0.00325
 432  O 3   d 4      0.00133
 433  O 3   d 5      0.00424
 434  O 3   d 1     -0.01055
 435  O 3   d 2      0.02267
 436  O 3   d 3     -0.01870
 437  O 3   d 4     -0.00005
 438  O 3   d 5     -0.03251
 439  O 3   d 1     -0.04880
 440  O 3   d 2      0.06533
 441  O 3   d 3     -0.03221
 442  O 3   d 4      0.00659
 443  O 3   d 5     -0.12396
 444  O 3   f 1     -0.00017
 445  O 3   f 2     -0.00046
 446  O 3   f 3      0.00006
 447  O 3   f 4     -0.00016
 448  O 3   f 5      0.00085
 449  O 3   f 6      0.00019
 450  O 3   f 7     -0.00010
 451  O 3   f 1      0.00068
 452  O 3   f 2      0.00354
 453  O 3   f 3     -0.00109
 454  O 3   f 4      0.00162
 455  O 3   f 5     -0.00638
 456  O 3   f 6     -0.00135
 457  O 3   f 7     -0.00014
 458  O 3   f 1     -0.00936
 459  O 3   f 2      0.03045
 460  O 3   f 3     -0.01226
 461  O 3   f 4      0.00211
 462  O 3   f 5     -0.05071
 463  O 3   f 6     -0.01219
 464  O 3   f 7     -0.02149
 465  O 3   g 1      0.00013
 466  O 3   g 2     -0.00017
 467  O 3   g 3      0.00005
 468  O 3   g 4      0.00013
 469  O 3   g 5     -0.00023
 470  O 3   g 6      0.00024
 471  O 3   g 7      0.00016
 472  O 3   g 8      0.00003
 473  O 3   g 9      0.00015
 474  O 3   g 1     -0.00042
 475  O 3   g 2      0.00506
 476  O 3   g 3     -0.00317
 477  O 3   g 4      0.00091
 478  O 3   g 5      0.00598
 479  O 3   g 6      0.00227
 480  O 3   g 7     -0.00780
 481  O 3   g 8     -0.00323
 482  O 3   g 9     -0.00179
 483  O 3   h 1      0.00006
 484  O 3   h 2      0.00053
 485  O 3   h 3     -0.00029
 486  O 3   h 4      0.00067
 487  O 3   h 5     -0.00009
 488  O 3   h 6     -0.00013
 489  O 3   h 7      0.00021
 490  O 3   h 8      0.00015
 491  O 3   h 9     -0.00068
 492  O 3   h10     -0.00045
 493  O 3   h11     -0.00011
 494  H 5   s        0.00599
 495  H 5   s       -0.00790
 496  H 5   s        0.51878
 497  H 5   s        0.29161
 498  H 5   s        1.37608
 499  H 5   px       0.00193
 500  H 5   py       0.00078
 501  H 5   pz      -0.00338
 502  H 5   px      -0.00969
 503  H 5   py      -0.00283
 504  H 5   pz       0.00657
 505  H 5   px       0.00880
 506  H 5   py      -0.01139
 507  H 5   pz       0.11006
 508  H 5   px      -0.00433
 509  H 5   py      -0.00326
 510  H 5   pz       0.21913
 511  H 5   d 1     -0.00006
 512  H 5   d 2      0.00063
 513  H 5   d 3     -0.00068
 514  H 5   d 4      0.00025
 515  H 5   d 5     -0.00008
 516  H 5   d 1      0.00183
 517  H 5   d 2     -0.00835
 518  H 5   d 3      0.01729
 519  H 5   d 4     -0.00869
 520  H 5   d 5      0.00043
 521  H 5   d 1     -0.02297
 522  H 5   d 2      0.01454
 523  H 5   d 3      0.05291
 524  H 5   d 4      0.03657
 525  H 5   d 5     -0.01598
 526  H 5   f 1      0.00022
 527  H 5   f 2      0.00076
 528  H 5   f 3     -0.00148
 529  H 5   f 4      0.00121
 530  H 5   f 5     -0.00179
 531  H 5   f 6      0.00047
 532  H 5   f 7      0.00010
 533  H 5   f 1      0.00019
 534  H 5   f 2     -0.00538
 535  H 5   f 3      0.00230
 536  H 5   f 4      0.01077
 537  H 5   f 5      0.00511
 538  H 5   f 6     -0.00454
 539  H 5   f 7      0.00026
 540  H 5   g 1     -0.00012
 541  H 5   g 2      0.00018
 542  H 5   g 3     -0.00019
 543  H 5   g 4     -0.00028
 544  H 5   g 5      0.00105
 545  H 5   g 6     -0.00023
 546  H 5   g 7     -0.00023
 547  H 5   g 8     -0.00000
 548  H 5   g 9     -0.00001
 549  H 6   s        0.00556
 550  H 6   s        0.00322
 551  H 6   s        0.51220
 552  H 6   s        0.38208
 553  H 6   s        0.32299
 554  H 6   px       0.00230
 555  H 6   py      -0.00028
 556  H 6   pz       0.00196
 557  H 6   px      -0.01070
 558  H 6   py       0.00013
 559  H 6   pz      -0.00611
 560  H 6   px      -0.07261
 561  H 6   py       0.01806
 562  H 6   pz      -0.07834
 563  H 6   px      -0.12856
 564  H 6   py       0.06624
 565  H 6   pz      -0.21706
 566  H 6   d 1     -0.00007
 567  H 6   d 2     -0.00076
 568  H 6   d 3     -0.00024
 569  H 6   d 4     -0.00068
 570  H 6   d 5     -0.00048
 571  H 6   d 1     -0.00212
 572  H 6   d 2      0.00151
 573  H 6   d 3      0.00382
 574  H 6   d 4      0.01895
 575  H 6   d 5      0.01056
 576  H 6   d 1     -0.00669
 577  H 6   d 2     -0.02424
 578  H 6   d 3      0.01525
 579  H 6   d 4     -0.01454
 580  H 6   d 5     -0.01188
 581  H 6   f 1      0.00041
 582  H 6   f 2      0.00060
 583  H 6   f 3      0.00014
 584  H 6   f 4      0.00064
 585  H 6   f 5     -0.00142
 586  H 6   f 6     -0.00175
 587  H 6   f 7     -0.00067
 588  H 6   f 1     -0.00054
 589  H 6   f 2     -0.00098
 590  H 6   f 3      0.00129
 591  H 6   f 4     -0.00287
 592  H 6   f 5      0.00099
 593  H 6   f 6      0.00292
 594  H 6   f 7      0.00139
 595  H 6   g 1     -0.00007
 596  H 6   g 2      0.00003
 597  H 6   g 3     -0.00006
 598  H 6   g 4     -0.00011
 599  H 6   g 5      0.00001
 600  H 6   g 6      0.00013
 601  H 6   g 7      0.00013
 602  H 6   g 8      0.00006
 603  H 6   g 9     -0.00008
 604  O 4   s       -0.00133
 605  O 4   s       -0.01587
 606  O 4   s       -0.00478
 607  O 4   s        0.01141
 608  O 4   s       -0.10040
 609  O 4   s       -0.20450
 610  O 4   px       0.01483
 611  O 4   py      -0.00728
 612  O 4   pz       0.01831
 613  O 4   px       0.02559
 614  O 4   py      -0.01162
 615  O 4   pz       0.02715
 616  O 4   px       0.03698
 617  O 4   py      -0.02851
 618  O 4   pz       0.06307
 619  O 4   px      -0.05325
 620  O 4   py      -0.06208
 621  O 4   pz       0.09079
 622  O 4   px       0.00349
 623  O 4   py      -0.32404
 624  O 4   pz       0.29328
 625  O 4   d 1      0.00011
 626  O 4   d 2      0.00000
 627  O 4   d 3     -0.00007
 628  O 4   d 4     -0.00011
 629  O 4   d 5      0.00011
 630  O 4   d 1     -0.00014
 631  O 4   d 2     -0.00022
 632  O 4   d 3      0.00002
 633  O 4   d 4      0.00131
 634  O 4   d 5      0.00029
 635  O 4   d 1     -0.00615
 636  O 4   d 2      0.00518
 637  O 4   d 3     -0.00091
 638  O 4   d 4      0.00506
 639  O 4   d 5      0.00129
 640  O 4   d 1     -0.03486
 641  O 4   d 2      0.05923
 642  O 4   d 3      0.00664
 643  O 4   d 4      0.06251
 644  O 4   d 5      0.01643
 645  O 4   f 1     -0.00001
 646  O 4   f 2     -0.00029
 647  O 4   f 3     -0.00024
 648  O 4   f 4     -0.00001
 649  O 4   f 5     -0.00012
 650  O 4   f 6     -0.00032
 651  O 4   f 7      0.00014
 652  O 4   f 1     -0.00035
 653  O 4   f 2      0.00125
 654  O 4   f 3      0.00066
 655  O 4   f 4     -0.00057
 656  O 4   f 5      0.00056
 657  O 4   f 6      0.00160
 658  O 4   f 7     -0.00054
 659  O 4   f 1     -0.01360
 660  O 4   f 2      0.01109
 661  O 4   f 3     -0.00519
 662  O 4   f 4     -0.00312
 663  O 4   f 5     -0.00604
 664  O 4   f 6      0.00563
 665  O 4   f 7      0.01011
 666  O 4   g 1      0.00016
 667  O 4   g 2     -0.00016
 668  O 4   g 3     -0.00007
 669  O 4   g 4      0.00001
 670  O 4   g 5     -0.00006
 671  O 4   g 6      0.00000
 672  O 4   g 7     -0.00014
 673  O 4   g 8     -0.00014
 674  O 4   g 9     -0.00009
 675  O 4   g 1     -0.00206
 676  O 4   g 2      0.00110
 677  O 4   g 3     -0.00035
 678  O 4   g 4     -0.00019
 679  O 4   g 5      0.00090
 680  O 4   g 6     -0.00048
 681  O 4   g 7      0.00097
 682  O 4   g 8      0.00096
 683  O 4   g 9      0.00098
 684  O 4   h 1     -0.00012
 685  O 4   h 2     -0.00007
 686  O 4   h 3     -0.00012
 687  O 4   h 4      0.00006
 688  O 4   h 5      0.00000
 689  O 4   h 6     -0.00005
 690  O 4   h 7      0.00004
 691  O 4   h 8     -0.00014
 692  O 4   h 9      0.00011
 693  O 4   h10     -0.00010
 694  O 4   h11      0.00006
 695  H 7   s        0.00069
 696  H 7   s       -0.00214
 697  H 7   s        0.16256
 698  H 7   s        0.32490
 699  H 7   s        0.60085
 700  H 7   px       0.00018
 701  H 7   py      -0.00009
 702  H 7   pz      -0.00007
 703  H 7   px       0.00109
 704  H 7   py       0.00285
 705  H 7   pz       0.00014
 706  H 7   px      -0.02332
 707  H 7   py      -0.05118
 708  H 7   pz       0.01392
 709  H 7   px      -0.04261
 710  H 7   py      -0.05216
 711  H 7   pz       0.01017
 712  H 7   d 1     -0.00035
 713  H 7   d 2      0.00009
 714  H 7   d 3      0.00028
 715  H 7   d 4     -0.00006
 716  H 7   d 5      0.00018
 717  H 7   d 1      0.00337
 718  H 7   d 2     -0.00285
 719  H 7   d 3     -0.00178
 720  H 7   d 4     -0.00016
 721  H 7   d 5     -0.00349
 722  H 7   d 1      0.01220
 723  H 7   d 2     -0.00417
 724  H 7   d 3     -0.00833
 725  H 7   d 4      0.00216
 726  H 7   d 5     -0.01242
 727  H 7   f 1     -0.00004
 728  H 7   f 2      0.00023
 729  H 7   f 3     -0.00006
 730  H 7   f 4     -0.00022
 731  H 7   f 5      0.00005
 732  H 7   f 6     -0.00031
 733  H 7   f 7      0.00011
 734  H 7   f 1      0.00184
 735  H 7   f 2     -0.00008
 736  H 7   f 3      0.00159
 737  H 7   f 4      0.00042
 738  H 7   f 5      0.00101
 739  H 7   f 6     -0.00196
 740  H 7   f 7      0.00393
 741  H 7   g 1     -0.00026
 742  H 7   g 2      0.00020
 743  H 7   g 3     -0.00012
 744  H 7   g 4      0.00002
 745  H 7   g 5      0.00012
 746  H 7   g 6     -0.00004
 747  H 7   g 7     -0.00009
 748  H 7   g 8      0.00023
 749  H 7   g 9     -0.00005
 750  H 8   s       -0.00072
 751  H 8   s        0.00802
 752  H 8   s       -0.00042
 753  H 8   s       -0.14753
 754  H 8   s       -0.76495
 755  H 8   px      -0.00077
 756  H 8   py       0.00050
 757  H 8   pz      -0.00026
 758  H 8   px       0.00108
 759  H 8   py       0.00188
 760  H 8   pz      -0.00159
 761  H 8   px      -0.02679
 762  H 8   py      -0.00098
 763  H 8   pz      -0.00463
 764  H 8   px       0.04098
 765  H 8   py      -0.04678
 766  H 8   pz       0.01613
 767  H 8   d 1     -0.00022
 768  H 8   d 2     -0.00041
 769  H 8   d 3      0.00011
 770  H 8   d 4     -0.00018
 771  H 8   d 5     -0.00025
 772  H 8   d 1     -0.00066
 773  H 8   d 2      0.00138
 774  H 8   d 3     -0.00099
 775  H 8   d 4      0.00238
 776  H 8   d 5      0.00199
 777  H 8   d 1      0.00869
 778  H 8   d 2      0.01078
 779  H 8   d 3      0.00140
 780  H 8   d 4     -0.00339
 781  H 8   d 5      0.01270
 782  H 8   f 1      0.00023
 783  H 8   f 2      0.00026
 784  H 8   f 3     -0.00004
 785  H 8   f 4      0.00014
 786  H 8   f 5     -0.00011
 787  H 8   f 6     -0.00009
 788  H 8   f 7      0.00022
 789  H 8   f 1      0.00008
 790  H 8   f 2     -0.00277
 791  H 8   f 3     -0.00104
 792  H 8   f 4     -0.00127
 793  H 8   f 5      0.00037
 794  H 8   f 6     -0.00247
 795  H 8   f 7     -0.00299
 796  H 8   g 1     -0.00015
 797  H 8   g 2     -0.00002
 798  H 8   g 3      0.00015
 799  H 8   g 4     -0.00007
 800  H 8   g 5      0.00011
 801  H 8   g 6      0.00008
 802  H 8   g 7      0.00014
 803  H 8   g 8      0.00028
 804  H 8   g 9      0.00005

          Ground-State Mulliken Net Atomic Charges

     Atom                 Charge (a.u.)
  ----------------------------------------
      1 O                    -0.650974
      2 H                     0.278653
      3 H                     0.364345
      4 O                    -0.631641
      5 H                     0.332286
      6 H                     0.326619
      7 O                    -0.765974
      8 H                     0.365103
      9 H                     0.388598
     10 O                    -0.628021
     11 H                     0.341162
     12 H                     0.279844
  ----------------------------------------
  Sum of atomic charges =     0.000000

 -----------------------------------------------------------------
                    Cartesian Multipole Moments
 -----------------------------------------------------------------
    Charge (ESU x 10^10)
                 0.0000
    Dipole Moment (Debye)
         X       6.1434      Y       4.2234      Z       0.8541
       Tot       7.5038
    Quadrupole Moments (Debye-Ang)
        XX     -28.4113     XY       0.0283     YY     -20.7073
        XZ       3.1827     YZ      -1.5963     ZZ     -21.0454
    Octopole Moments (Debye-Ang^2)
       XXX      38.6028    XXY      19.1464    XYY      16.6386
       YYY      22.3868    XXZ       8.1248    XYZ       1.4646
       YYZ      14.6619    XZZ       8.2975    YZZ       1.4740
       ZZZ     -11.8008
    Hexadecapole Moments (Debye-Ang^3)
      XXXX    -267.1590   XXXY     -90.0011   XXYY     -78.7189
      XYYY     -84.1624   YYYY    -182.8504   XXXZ     -25.3166
      XXYZ       0.4289   XYYZ       0.3959   YYYZ      10.4252
      XXZZ     -78.6738   XYZZ     -28.7077   YYZZ     -62.8625
      XZZZ     -29.7051   YZZZ     -27.1450   ZZZZ    -224.4443
 -----------------------------------------------------------------
 Total job time:  1384.58s(wall), 43478.12s(cpu) 
 Tue Jan 14 15:17:58 2025

        *************************************************************
        *                                                           *
        *  Thank you very much for using Q-Chem.  Have a nice day.  *
        *                                                           *
        *************************************************************


