                  Welcome to Q-Chem
     A Quantum Leap Into The Future Of Chemistry


 Q-Chem 6.2 (devel), Q-Chem, Inc., Pleasanton, CA (2024)

 E. Epifanovsky,  A. T. B. Gilbert,  Xintian Feng,  Joonho Lee,  Yuezhi Mao,  
 N. Mardirossian,  P. Pokhilko,  A. White,  M. Wormit,  M. P. Coons,  
 A. L. Dempwolff,  Zhengting Gan,  D. Hait,  P. R. Horn,  L. D. Jacobson,  
 I. Kaliman,  J. Kussmann,  A. W. Lange,  Ka Un Lao,  D. S. Levine,  Jie Liu,  
 S. C. McKenzie,  A. F. Morrison,  K. D. Nanda,  F. Plasser,  D. R. Rehn,  
 M. L. Vidal,  Zhi-Qiang You,  Ying Zhu,  Huseyin Aksu,  B. Alam,  
 B. Albrecht,  A. Aldossary,  E. Alguire,  J. H. Andersen,  
 J. E. Arias-Martinez,  V. Athavale,  D. Barton,  K. Begam,  A. Behn,  
 N. Bellonzi,  Y. A. Bernard,  E. J. Berquist,  H. Burton,  A. Carreras,  
 K. Carter-Fenk,  Mathew Chow,  Romit Chakraborty,  Chandrima Chakravarty,  
 Junhan Chen,  A. D. Chien,  K. D. Closser,  V. Cofer-Shabica,  L. Cunha,  
 S. Dasgupta,  Jia Deng,  Joseph Dickinson,  M. de Wergifosse,  
 M. Diedenhofen,  Hainam Do,  Wenjie Dou,  S. Ehlert,  Po-Tung Fang,  
 S. Fatehi,  Qingguo Feng,  Jonathan Fetherolf,  T. Friedhoff,  
 Thomas Froitzheim,  Sarai Folkestad,  B. Ganoe,  J. Gayvert,  Qinghui Ge,  
 G. Gidofalvi,  M. Gimferrer,  M. Goldey,  Montgomery Gray,  J. Gomes,  
 C. Gonzalez-Espinoza,  S. Gulania,  A. Gunina,  J. A. Gyamfi,  
 M. W. D. Hanson-Heine,  P. H. P. Harbach,  A. W. Hauser,  M. F. Herbst,  
 M. Hernandez Vera,  M. Hodecker,  Z. C. Holden,  S. Houck,  Xunkun Huang,  
 Kerwin Hui,  B. C. Huynh,  K. Ikeda,  M. Ivanov,  Nayanthara K. Jayadev,  
 Hyunjun Ji,  Zuxin Jin,  Hanjie Jiang,  Subrata Jana,  B. Kaduk,  
 S. Kaehler,  R. Kang,  K. Khistyaev,  Jaehoon Kim,  Yongbin Kim,  
 P. Klunzinger,  Z. Koczor-Benda,  Joong Hoon Koh,  D. Kosenkov,  
 Saikiran Kotaru,  L. Koulias,  T. Kowalczyk,  C. M. Krauter,  K. Kue,  
 A. Kunitsa,  T. Kus,  A. Landau,  K. V. Lawler,  D. Lefrancois,  S. Lehtola,  
 Rain Li,  Shaozhi Li,  Tao E. Li,  Yi-Pei Li,  Jiashu Liang,  M. Liebenthal,  
 Hung-Hsuan Lin,  You-Sheng Lin,  Fenglai Liu,  Kuan-Yu Liu,  Xiao Liu,  
 M. Loipersberger,  A. Luenser,  C. Malbon,  Aniket Mandal,  Manisha,  
 A. Manjanath,  P. Manohar,  E. Mansoor,  S. F. Manzer,  Shan-Ping Mao,  
 A. V. Marenich,  T. Markovich,  S. Mason,  F. Matz,  S. A. Maurer,  
 Samuel May,  Alexandra McIsaac,  P. F. McLaughlin,  M. F. S. J. Menger,  
 J.-M. Mewes,  S. A. Mewes,  P. Morgante,  Mohammad Mostafanejad,  
 Madhubani Mukherjee,  J. W. Mullinax,  Quyen Nguyen,  Avik Kumar Ojha,  
 K. J. Oosterbaan,  Eno Paenurk,  Xiaoliang Pan,  G. Paran,  V. Parravicini,  
 Alexander C. Paul,  Suranjan K. Paul,  F. Pavosevic,  Zheng Pei,  S. Prager,  
 E. I. Proynov,  E. Ramos,  B. Rana,  A. E. Rask,  A. Rettig,  R. M. Richard,  
 F. Rob,  E. Rossomme,  T. Scheele,  M. Scheurer,  M. Schneider,  
 P. E. Schneider,  Tim K. Schramm,  N. Sergueev,  S. M. Sharada,  
 Hengyuan Shen,  W. Skomorowski,  D. W. Small,  C. J. Stein,  
 Alistair J. Sterling,  Yingli Su,  Yu-Chuan Su,  E. J. Sundstrom,  
 J. Talbot,  Zhen Tao,  J. Thirman,  Hung-Yi Tsai,  T. Tsuchimochi,  
 N. M. Tubman,  C. Utku,  S. P. Veccham,  O. Vydrov,  Rahel Weiss,  
 J. Wenzel,  Jonathan Wong,  J. Witte,  H. Wu,  Yanze Wu,  A. Yamada,  
 Chou-Hsun Yang,  Kun Yao,  S. Yeganeh,  S. R. Yost,  Qi Yu,  A. Zech,  
 F. Zeller,  Chongxiao Zhao,  Igor Ying Zhang,  Xing Zhang,  Yu Zhang,  
 D. Zuev,  A. Aspuru-Guzik,  A. T. Bell,  N. A. Besley,  K. B. Bravaya,  
 B. R. Brooks,  D. Casanova,  Jeng-Da Chai,  Hsing-Ta Chen,  S. Coriani,  
 C. J. Cramer,  A. E. DePrince, III,  R. A. DiStasio Jr.,  A. Dreuw,  
 B. D. Dunietz,  T. R. Furlani,  W. A. Goddard III,  S. Grimme,  
 S. Hammes-Schiffer,  T. Head-Gordon,  W. J. Hehre,  Chao-Ping Hsu,  
 T.-C. Jagau,  Yousung Jung,  A. Klamt,  Jing Kong,  D. S. Lambrecht,  
 Xiangyuan Li,  WanZhen Liang,  N. J. Mayhall,  C. W. McCurdy,  J. B. Neaton,  
 T. Neudecker,  C. Ochsenfeld,  J. A. Parkhill,  R. Peverati,  
 V. A. Rassolov,  Haisheng Ren,  Yihan Shao,  L. V. Slipchenko,  
 R. P. Steele,  J. E. Subotnik,  A. J. W. Thom,  A. Tkatchenko,  
 D. G. Truhlar,  T. Van Voorhis,  Fan Wang,  T. A. Wesolowski,  K. B. Whaley,  
 H. L. Woodcock III,  P. M. Zimmerman,  S. Faraji,  P. M. W. Gill,  
 M. Head-Gordon,  J. M. Herbert,  A. I. Krylov

 Contributors to earlier versions of Q-Chem not listed above: 
 R. D. Adamson,  B. Austin,  R. Baer,  J. Baker,  G. J. O. Beran,  
 K. Brandhorst,  S. T. Brown,  E. F. C. Byrd,  Arup K. Chakraborty,  
 G. K. L. Chan,  Chun-Min Chang,  Yunqing Chen,  C.-L. Cheng,  
 Siu Hung Chien,  D. M. Chipman,  D. L. Crittenden,  H. Dachsel,  
 R. J. Doerksen,  A. D. Dutoi,  R. G. Edgar,  J. Fosso-Tande,  
 L. Fusti-Molnar,  D. Ghosh,  A. Ghysels,  A. Golubeva-Zadorozhnaya,  
 J. Gonthier,  M. S. Gordon,  S. R. Gwaltney,  G. Hawkins,  J. E. Herr,  
 A. Heyden,  S. Hirata,  E. G. Hohenstein,  G. Kedziora,  F. J. Keil,  
 C. Kelley,  Jihan Kim,  R. A. King,  R. Z. Khaliullin,  P. P. Korambath,  
 W. Kurlancheek,  A. Laurent,  A. M. Lee,  M. S. Lee,  S. V. Levchenko,  
 Ching Yeh Lin,  D. Liotard,  E. Livshits,  R. C. Lochan,  I. Lotan,  
 L. A. Martinez-Martinez,  P. E. Maslen,  N. Nair,  D. P. O'Neill,  
 D. Neuhauser,  E. Neuscamman,  C. M. Oana,  R. Olivares-Amaya,  R. Olson,  
 T. M. Perrine,  B. Peters,  P. A. Pieniazek,  A. Prociuk,  Y. M. Rhee,  
 J. Ritchie,  M. A. Rohrdanz,  E. Rosta,  N. J. Russ,  H. F. Schaefer III,  
 M. W. Schmidt,  N. E. Schultz,  S. Sharma,  N. Shenvi,  C. D. Sherrill,  
 A. C. Simmonett,  A. Sodt,  T. Stein,  D. Stuck,  K. S. Thanthiriwatte,  
 V. Vanovschi,  L. Vogt,  Tao Wang,  A. Warshel,  M. A. Watson,  
 C. F. Williams,  Q. Wu,  X. Xu,  Jun Yang,  W. Zhang,  Yan Zhao

   Please cite Q-Chem as follows:
  "Software for the frontiers of quantum chemistry:
   An overview of developments in the Q-Chem 5 package"
   J. Chem. Phys. 155, 084801 (2021)
   https://doi.org/10.1063/5.0055522 (open access)

 Q-Chem 6.2.2 for Intel X86 EM64T Linux

 Parts of Q-Chem use Armadillo 9.900.5 (Nocturnal Misbehaviour).
 http://arma.sourceforge.net/

 Q-Chem begins on Tue Dec 17 21:34:01 2024  

 Host: compute-0-12.local
0

     Scratch files written to /scratch/keith/A0D1_1//
 Processing $rem in /home/keith/software/qchem/qchem_622/config/preferences:
 Processing $rem in /home/keith/.qchemrc:

 Checking the input file for inconsistencies... 	...done.

--------------------------------------------------------------
User input:
--------------------------------------------------------------
$molecule
0 1
O -1.10994 -0.72485 -1.20867
H -1.34687 -1.43655 -1.74217
H -0.47154 -0.91655 -0.54157
O 0.46186 -1.95685 0.62713
H -0.26834 -2.59565 0.73563
H 1.30456 -2.35415 0.89163
O 0.50996 0.49825 2.15563
H -0.29454 0.95225 1.96163
H 0.34816 -0.32315 1.61363
O 0.17106 2.37091 -1.59037
H 0.85486 1.87499 -1.09617
H -0.64924 1.82330 -1.56397
$end

$rem
method                    b3lyp 
basis                     cc-pv5z 
mem_total                 48000
mem_static                8000
thresh                    12
scf_convergence           8
xc_grid                   000075000302
max_scf_cycles            2000
symmetry                  false
sym_ignore                true
print_orbitals true
$end
gui                       2
molden_format true
--------------------------------------------------------------
 ----------------------------------------------------------------
             Standard Nuclear Orientation (Angstroms)
    I     Atom           X                Y                Z
 ----------------------------------------------------------------
    1      O      -1.1099400000    -0.7248500000    -1.2086700000
    2      H      -1.3468700000    -1.4365500000    -1.7421700000
    3      H      -0.4715400000    -0.9165500000    -0.5415700000
    4      O       0.4618600000    -1.9568500000     0.6271300000
    5      H      -0.2683400000    -2.5956500000     0.7356300000
    6      H       1.3045600000    -2.3541500000     0.8916300000
    7      O       0.5099600000     0.4982500000     2.1556300000
    8      H      -0.2945400000     0.9522500000     1.9616300000
    9      H       0.3481600000    -0.3231500000     1.6136300000
   10      O       0.1710600000     2.3709100000    -1.5903700000
   11      H       0.8548600000     1.8749900000    -1.0961700000
   12      H      -0.6492400000     1.8233000000    -1.5639700000
 ----------------------------------------------------------------
 Nuclear Repulsion Energy =         128.23940114 hartrees
 There are       20 alpha and       20 beta electrons
 Requested basis set is cc-pV5Z
 There are 204 shells and 804 basis functions

 Total QAlloc Memory Limit  48000 MB
 Mega-Array Size      7821 MB
 MEM_STATIC part      8000 MB


                       Distance Matrix (Angstroms)
             O (  1)   H (  2)   H (  3)   O (  4)   H (  5)   H (  6)
   H (  2)  0.920475
   H (  3)  0.943041  1.574180
   O (  4)  2.712663  3.025855  1.821900
   H (  5)  2.826391  2.940448  2.119412  0.976232
   H (  6)  3.591057  3.848243  2.697274  0.968479  1.598960
   O (  7)  3.929194  4.731185  3.199983  2.892428  3.492044  3.219514
   H (  8)  3.678090  4.531214  3.128858  3.288753  3.753846  3.825481
   H (  9)  3.201999  3.920992  2.380949  1.911828  2.513009  2.358166
   O ( 10)  3.372000  4.101696  3.510030  4.871486  5.501824  5.456312
   H ( 11)  3.260715  4.028800  3.140002  4.219859  4.960211  4.694593
   H ( 12)  2.613724  3.338423  2.929788  4.508325  4.996035  5.224787
             O (  7)   H (  8)   H (  9)   O ( 10)   H ( 11)
   H (  8)  0.943913
   H (  9)  0.997317  1.469970
   O ( 10)  4.201693  3.853062  4.189862
   H ( 11)  3.548038  3.394512  3.525845  0.978648
   H ( 12)  4.115207  3.648890  3.962221  0.986644  1.576016

 A cutoff of  1.0D-12 yielded  15376 shell pairs
 There are    215110 function pairs (    361391 Cartesian)
 Smallest overlap matrix eigenvalue = 3.22E-05

 Scale SEOQF with 1.000000e-01/1.000000e-01/1.000000e-01

 Standard Electronic Orientation quadrupole field applied
 Nucleus-field energy     =    -0.0000000012 hartrees
 Guess from superposition of atomic densities
 Warning:  Energy on first SCF cycle will be non-variational
 SAD guess density has 40.000000 electrons

 -----------------------------------------------------------------------
  General SCF calculation program by
  Eric Jon Sundstrom, Paul Horn, Yuezhi Mao, Dmitri Zuev, Alec White,
  David Stuck, Shaama M.S., Shane Yost, Joonho Lee, David Small,
  Daniel Levine, Susi Lehtola, Hugh Burton, Evgeny Epifanovsky,
  Bang C. Huynh
 -----------------------------------------------------------------------
 Exchange:     0.2000 Hartree-Fock + 0.0800 Slater + 0.7200 B88
 Correlation:  0.1900 VWN1RPA + 0.8100 LYP
 Using Euler-Maclaurin-Lebedev (75,302) quadrature formula
 A restricted SCF calculation will be
 performed using DIIS
 SCF converges when DIIS error is below 1.0e-08
 ---------------------------------------
  Cycle       Energy         DIIS error
 ---------------------------------------
    1    -305.7609197320      8.23e-03  
    2    -305.6313479971      2.17e-03  
    3    -305.3348502778      3.18e-03  
    4    -305.8971072116      1.16e-04  
    5    -305.8972505758      1.05e-04  
    6    -305.8978158002      1.11e-05  
    7    -305.8978216898      2.06e-06  
    8    -305.8978217745      1.71e-06  
    9    -305.8978219274      1.04e-07  
   10    -305.8978219280      2.73e-08  
   11    -305.8978219280      1.33e-08  
   12    -305.8978219280      1.88e-09  Convergence criterion met
 ---------------------------------------
 SCF time:   CPU 52462.49s  wall 1672.00s 
 SCF   energy =  -305.89782193
 Total energy =  -305.89782193

 --------------------------------------------------------------

                    Orbital Energies (a.u.)
 --------------------------------------------------------------

 Alpha MOs
 -- Occupied --
-19.1946 -19.1237 -19.1183 -19.1107  -1.0769  -1.0264  -1.0042  -0.9840
 -0.6096  -0.5734  -0.5154  -0.5095  -0.4582  -0.4059  -0.3850  -0.3740
 -0.3646  -0.3267  -0.3094  -0.2967
 -- Virtual --
 -0.0456   0.0075   0.0190   0.0369   0.0536   0.0823   0.1149   0.1293
  0.1665   0.1760   0.1915   0.2078   0.2149   0.2282   0.2453   0.2490
  0.2524   0.2659   0.2686   0.2787   0.2871   0.2906   0.3103   0.3191
  0.3253   0.3432   0.3530   0.3635   0.3849   0.4073   0.4234   0.4471
  0.4612   0.4737   0.4950   0.5134   0.5338   0.5458   0.5680   0.5804
  0.5995   0.6224   0.6316   0.6412   0.6734   0.6795   0.6896   0.7009
  0.7269   0.7390   0.7469   0.7556   0.7809   0.7905   0.8035   0.8157
  0.8342   0.8505   0.8611   0.8746   0.8860   0.8973   0.9346   0.9730
  0.9913   1.0123   1.0178   1.0438   1.0523   1.0641   1.0714   1.0754
  1.0862   1.1008   1.1076   1.1433   1.1582   1.1845   1.2067   1.2168
  1.2266   1.2319   1.2520   1.3072   1.3208   1.3299   1.3600   1.3782
  1.4007   1.4249   1.4479   1.4566   1.4724   1.4912   1.4983   1.5159
  1.5351   1.5601   1.5767   1.5806   1.5864   1.5937   1.6038   1.6114
  1.6419   1.6650   1.6850   1.6969   1.6995   1.7087   1.7232   1.7444
  1.7559   1.7624   1.7728   1.7873   1.7993   1.8068   1.8175   1.8351
  1.8540   1.8655   1.8705   1.8860   1.9006   1.9256   1.9360   1.9440
  1.9577   1.9783   1.9919   2.0154   2.0216   2.0226   2.0392   2.0522
  2.0595   2.0901   2.1207   2.1678   2.1837   2.1892   2.2219   2.2466
  2.2701   2.2762   2.2976   2.3184   2.3524   2.3600   2.3724   2.3824
  2.3980   2.4181   2.4386   2.4630   2.4717   2.4862   2.4990   2.5410
  2.5837   2.6130   2.6244   2.6374   2.6604   2.6692   2.6905   2.7059
  2.7318   2.7443   2.7870   2.7888   2.8097   2.8232   2.8378   2.8684
  2.8852   2.8946   2.9165   2.9304   2.9394   2.9623   2.9870   2.9979
  3.0466   3.0686   3.0968   3.1148   3.1237   3.1801   3.1919   3.2233
  3.2331   3.2624   3.2995   3.3210   3.3257   3.3334   3.3505   3.3778
  3.4007   3.4194   3.4315   3.4396   3.4751   3.4976   3.5079   3.5185
  3.5441   3.5583   3.5706   3.6282   3.6374   3.6582   3.6757   3.6798
  3.7161   3.7335   3.7554   3.7768   3.7867   3.8109   3.8165   3.8651
  3.8680   3.8820   3.8915   3.9215   3.9341   3.9673   3.9960   4.0239
  4.0461   4.0680   4.1334   4.1512   4.1713   4.2012   4.2488   4.2679
  4.2826   4.3123   4.3369   4.3578   4.3684   4.3892   4.4175   4.4295
  4.4452   4.4464   4.4526   4.4873   4.5048   4.5053   4.5216   4.5351
  4.5481   4.5596   4.5751   4.5842   4.5961   4.6034   4.6158   4.6380
  4.6547   4.6599   4.6933   4.7084   4.7373   4.7431   4.7535   4.7698
  4.7856   4.7990   4.8099   4.8344   4.8453   4.8511   4.8722   4.8945
  4.9149   4.9193   4.9301   4.9446   4.9719   4.9940   5.0186   5.0297
  5.0558   5.0749   5.0857   5.1107   5.1406   5.1590   5.1688   5.2308
  5.2698   5.2862   5.3098   5.3349   5.3591   5.3655   5.3803   5.3908
  5.4200   5.4549   5.4831   5.5007   5.5500   5.5907   5.6175   5.6272
  5.6739   5.7168   5.7322   5.8301   5.8445   5.8665   5.8845   5.9310
  5.9638   6.0309   6.0366   6.0567   6.0869   6.1223   6.1679   6.2142
  6.2263   6.2344   6.2687   6.2836   6.3117   6.3385   6.3789   6.3846
  6.4185   6.4469   6.4747   6.5405   6.5587   6.5754   6.6067   6.6138
  6.6260   6.6730   6.6990   6.7307   6.7432   6.7603   6.7660   6.7755
  6.7815   6.8094   6.8166   6.8417   6.8766   6.8931   6.9034   6.9232
  6.9445   6.9612   6.9843   6.9878   6.9907   7.0322   7.0632   7.0711
  7.1167   7.1237   7.1614   7.1947   7.2261   7.2475   7.2654   7.2974
  7.3141   7.3246   7.3506   7.3834   7.4255   7.4719   7.4891   7.5061
  7.6439   7.6529   7.6603   7.6788   7.6979   7.7213   7.7628   7.7646
  7.7828   7.8172   7.8431   7.8652   7.8706   7.9247   7.9649   8.0365
  8.0651   8.1024   8.1983   8.2306   8.2508   8.2911   8.4080   8.4846
  8.5280   8.5958   8.7991   8.8693   8.9034   8.9674   8.9762   8.9765
  9.0292   9.0888   9.1569   9.2066   9.2419   9.2737   9.3514   9.5039
  9.6264   9.6416   9.6720   9.7139   9.7190   9.7275   9.7610   9.8217
  9.8720   9.9332  10.0653  10.2063  11.6944  11.6984  11.7275  11.7420
 11.7649  11.7660  11.7740  11.7769  11.7874  11.8072  11.8610  11.8910
 11.8995  11.9315  11.9515  11.9984  12.0379  12.0510  12.0553  12.0733
 12.0892  12.0988  12.1074  12.1313  12.1419  12.1523  12.1690  12.1698
 12.1794  12.2001  12.2026  12.2117  12.2167  12.2362  12.2402  12.2485
 12.2564  12.2725  12.2876  12.2962  12.3032  12.3157  12.3292  12.3449
 12.3485  12.3656  12.3744  12.3965  12.4138  12.4258  12.4476  12.4498
 12.4598  12.4770  12.5056  12.5094  12.5471  12.5608  12.5873  12.6434
 12.6634  12.6675  12.6907  12.7092  12.7129  12.7558  12.7682  12.7747
 12.7781  12.8002  12.8293  12.8553  12.9035  12.9071  12.9226  12.9298
 12.9799  13.0038  13.0276  13.0621  13.1244  13.1460  13.1589  13.1966
 13.2008  13.2258  13.2287  13.2581  13.2743  13.3057  13.3076  13.3169
 13.3345  13.3524  13.3609  13.3652  13.3883  13.4016  13.4059  13.4262
 13.4329  13.4518  13.4723  13.4794  13.4828  13.5007  13.5055  13.5284
 13.5347  13.5372  13.5456  13.5646  13.5808  13.6014  13.6244  13.6476
 13.6587  13.6715  13.6891  13.7054  13.7199  13.7535  13.7860  13.8194
 13.8823  13.8930  13.9000  13.9091  13.9560  13.9665  13.9914  14.0034
 14.0323  14.0678  14.0953  14.1140  14.1330  14.1694  14.1719  14.1768
 14.2222  14.2640  14.2753  14.3323  14.3403  14.3434  14.4123  14.4532
 14.5168  14.5747  14.5924  14.6431  14.6601  14.7594  14.8763  15.0652
 15.1074  15.1723  15.2270  15.2385  15.2974  15.3437  15.3578  15.4309
 15.4799  15.4947  15.6155  15.6341  15.7224  15.7369  15.7479  15.7994
 15.8384  15.8449  15.9019  15.9319  16.0274  16.0496  16.0625  16.0778
 16.0847  16.0939  16.1000  16.1166  16.1340  16.1431  16.1611  16.1696
 16.1774  16.1869  16.1929  16.2123  16.2284  16.2546  16.2873  16.2928
 16.3550  16.3875  16.4456  16.4866  16.6064  16.6644  16.6866  16.6921
 16.7147  16.7725  16.8222  16.8910  16.9330  16.9830  17.0400  17.0670
 17.1247  17.1447  17.1767  17.1830  17.2218  17.2270  17.2880  17.2954
 17.3124  17.3491  17.3728  17.3964  17.4748  17.5153  17.5352  17.5545
 17.5934  17.6259  17.6798  17.7172  17.7814  17.8073  17.8921  17.9055
 17.9525  17.9754  18.0568  18.1155  18.1192  18.1549  18.1866  18.2117
 18.2560  18.2753  18.3022  18.3126  18.3324  18.3556  18.3690  18.4034
 18.4285  18.4491  18.4811  18.5052  18.5151  18.5702  18.6915  18.7338
 18.7462  18.7685  18.8490  18.8810  18.9696  18.9921  19.0455  19.1770
 19.2350  19.2711  19.2753  19.2821  19.3070  19.3304  19.3564  19.3741
 19.4442  19.5043  19.5091  19.5107  19.5446  19.5577  19.6107  19.6268
 19.6831  19.7307  19.7667  19.8028  19.9115  19.9462  20.1447  20.2311
 20.5654  20.6540  20.6759  20.7174  20.8368  20.8553  20.9478  21.4252
 21.8384  21.8853  21.8987  21.9251  21.9548  22.0021  22.0441  22.1129
 22.2277  22.2913  22.2936  22.3386  22.5993  22.6403  22.7481  22.7805
 22.8138  22.8341  22.8460  22.9264  23.0010  23.0333  23.3993  23.4463
 23.5496  23.6174  23.9539  24.0312  24.2795  24.2933  24.4072  24.5193
 24.5960  24.6527  24.7537  24.9027  25.0042  25.2008  25.2280  25.5953
 25.7518  25.8161  26.1025  26.8214  63.8298  64.0316  64.3122  64.8662
 --------------------------------------------------------------


                        RESTRICTED (RHF) MOLECULAR ORBITAL COEFFICIENTS
                         1         2         3         4         5         6
 eigenvalues:        -19.195   -19.124   -19.118   -19.111    -1.077    -1.026
   1  O 1   s        0.00005  -0.97879   0.00001  -0.00003  -0.00251   0.01904
   2  O 1   s        0.00008  -0.03138   0.00000  -0.00001   0.03595  -0.28375
   3  O 1   s        0.00012  -0.08565  -0.00000  -0.00002   0.00098  -0.00743
   4  O 1   s       -0.00031   0.01616   0.00011   0.00004   0.04050  -0.32530
   5  O 1   s       -0.00046   0.02375  -0.00053   0.00060   0.05603  -0.43575
   6  O 1   s        0.00050   0.00468  -0.00123   0.00177   0.02435  -0.16943
   7  O 1   px       0.00001  -0.00039  -0.00000   0.00000   0.00173  -0.00791
   8  O 1   py      -0.00001   0.00104   0.00000  -0.00000  -0.00286   0.02132
   9  O 1   pz       0.00000  -0.00009  -0.00000  -0.00000   0.00115  -0.00154
  10  O 1   px      -0.00003  -0.00033   0.00001  -0.00001   0.00273  -0.01297
  11  O 1   py       0.00003   0.00057  -0.00001   0.00000  -0.00463   0.03495
  12  O 1   pz       0.00001  -0.00017   0.00002  -0.00000   0.00177  -0.00251
  13  O 1   px      -0.00005   0.00425   0.00000   0.00012   0.00473  -0.02161
  14  O 1   py       0.00003  -0.00850   0.00008  -0.00004  -0.00787   0.05770
  15  O 1   pz      -0.00025   0.00186  -0.00001   0.00008   0.00297  -0.00441
  16  O 1   px      -0.00017   0.00057  -0.00020   0.00029   0.00408  -0.01443
  17  O 1   py       0.00029  -0.00242   0.00010  -0.00031  -0.00635   0.03918
  18  O 1   pz       0.00032  -0.00054  -0.00044   0.00005   0.00338  -0.00285
  19  O 1   px       0.00008  -0.00033  -0.00007   0.00010   0.00108  -0.00149
  20  O 1   py       0.00014  -0.00066   0.00008  -0.00032  -0.00057   0.00495
  21  O 1   pz       0.00015  -0.00062  -0.00004  -0.00006   0.00100  -0.00088
  22  O 1   d 1     -0.00000  -0.00001  -0.00000   0.00000  -0.00002   0.00002
  23  O 1   d 2     -0.00000  -0.00012  -0.00000   0.00000   0.00000  -0.00016
  24  O 1   d 3      0.00000  -0.00005  -0.00000   0.00000   0.00001  -0.00002
  25  O 1   d 4      0.00000  -0.00027  -0.00000  -0.00000   0.00006  -0.00031
  26  O 1   d 5      0.00000   0.00004   0.00000   0.00000  -0.00000   0.00011
  27  O 1   d 1      0.00001  -0.00004   0.00000  -0.00000  -0.00004  -0.00008
  28  O 1   d 2      0.00002   0.00015   0.00000  -0.00000   0.00009  -0.00122
  29  O 1   d 3     -0.00000   0.00006   0.00001  -0.00000   0.00005  -0.00029
  30  O 1   d 4     -0.00001   0.00045   0.00001   0.00001   0.00036  -0.00236
  31  O 1   d 5     -0.00001  -0.00009  -0.00000  -0.00001  -0.00006   0.00066
  32  O 1   d 1     -0.00003   0.00068  -0.00002  -0.00001  -0.00030  -0.00035
  33  O 1   d 2     -0.00004   0.00202  -0.00004   0.00002   0.00031  -0.00553
  34  O 1   d 3     -0.00013   0.00135  -0.00003  -0.00000   0.00026  -0.00169
  35  O 1   d 4     -0.00013   0.00423  -0.00004  -0.00000   0.00182  -0.01063
  36  O 1   d 5      0.00000   0.00006   0.00005   0.00001  -0.00013   0.00242
  37  O 1   d 1      0.00025   0.00022  -0.00009   0.00002  -0.00024  -0.00055
  38  O 1   d 2      0.00014   0.00034  -0.00010   0.00017   0.00012  -0.00314
  39  O 1   d 3      0.00025  -0.00016  -0.00015  -0.00006   0.00043  -0.00094
  40  O 1   d 4     -0.00003  -0.00024  -0.00015   0.00001   0.00148  -0.00669
  41  O 1   d 5     -0.00007  -0.00016   0.00003  -0.00005  -0.00024   0.00207
  42  O 1   f 1      0.00001   0.00000   0.00000  -0.00000   0.00000  -0.00000
  43  O 1   f 2      0.00001   0.00011  -0.00000  -0.00000  -0.00001   0.00006
  44  O 1   f 3     -0.00000   0.00008   0.00000  -0.00000  -0.00001   0.00005
  45  O 1   f 4      0.00001  -0.00003  -0.00000   0.00000   0.00001  -0.00003
  46  O 1   f 5      0.00000  -0.00006   0.00000  -0.00000   0.00000  -0.00003
  47  O 1   f 6     -0.00001  -0.00014   0.00000   0.00000   0.00001  -0.00008
  48  O 1   f 7     -0.00000  -0.00007  -0.00000   0.00000   0.00000  -0.00005
  49  O 1   f 1     -0.00002  -0.00002  -0.00000   0.00001  -0.00001  -0.00018
  50  O 1   f 2     -0.00002  -0.00089   0.00001   0.00000  -0.00025   0.00166
  51  O 1   f 3      0.00001  -0.00059  -0.00001   0.00000  -0.00011   0.00088
  52  O 1   f 4     -0.00003   0.00023  -0.00000  -0.00001   0.00001  -0.00041
  53  O 1   f 5     -0.00004   0.00054  -0.00001   0.00001   0.00019  -0.00093
  54  O 1   f 6      0.00001   0.00117  -0.00001   0.00000   0.00035  -0.00228
  55  O 1   f 7      0.00000   0.00057  -0.00000  -0.00000   0.00013  -0.00091
  56  O 1   f 1      0.00009   0.00003  -0.00004   0.00003   0.00003  -0.00012
  57  O 1   f 2      0.00006   0.00023  -0.00005   0.00005  -0.00038   0.00228
  58  O 1   f 3     -0.00004   0.00018  -0.00003   0.00002  -0.00020   0.00136
  59  O 1   f 4      0.00008  -0.00003  -0.00007   0.00003   0.00016  -0.00064
  60  O 1   f 5      0.00001  -0.00025  -0.00010   0.00001   0.00038  -0.00136
  61  O 1   f 6      0.00001  -0.00034  -0.00006   0.00004   0.00058  -0.00310
  62  O 1   f 7      0.00005  -0.00017  -0.00001   0.00001   0.00022  -0.00118
  63  O 1   g 1     -0.00000  -0.00007   0.00000   0.00000  -0.00001   0.00009
  64  O 1   g 2     -0.00000  -0.00010   0.00000   0.00000  -0.00002   0.00014
  65  O 1   g 3      0.00000  -0.00003   0.00000  -0.00000  -0.00001   0.00002
  66  O 1   g 4      0.00001  -0.00004  -0.00000   0.00000  -0.00000   0.00006
  67  O 1   g 5     -0.00000  -0.00010   0.00000  -0.00000  -0.00002   0.00012
  68  O 1   g 6     -0.00000   0.00001   0.00000   0.00000   0.00000  -0.00001
  69  O 1   g 7      0.00000   0.00003   0.00000   0.00000   0.00001  -0.00001
  70  O 1   g 8     -0.00000  -0.00002   0.00000   0.00000  -0.00000   0.00004
  71  O 1   g 9     -0.00000   0.00002  -0.00000   0.00000   0.00000  -0.00003
  72  O 1   g 1     -0.00001   0.00001   0.00000   0.00000  -0.00006   0.00040
  73  O 1   g 2     -0.00001   0.00007   0.00001  -0.00001  -0.00013   0.00075
  74  O 1   g 3     -0.00002   0.00018   0.00000  -0.00000  -0.00007   0.00015
  75  O 1   g 4     -0.00003   0.00005   0.00001  -0.00000  -0.00008   0.00027
  76  O 1   g 5      0.00001  -0.00008   0.00000   0.00000  -0.00008   0.00067
  77  O 1   g 6     -0.00001   0.00009  -0.00001  -0.00000   0.00001  -0.00006
  78  O 1   g 7     -0.00002   0.00003  -0.00002  -0.00001   0.00006  -0.00015
  79  O 1   g 8      0.00001  -0.00008  -0.00001   0.00001   0.00002   0.00022
  80  O 1   g 9      0.00003  -0.00003  -0.00000   0.00000   0.00005  -0.00015
  81  O 1   h 1     -0.00000   0.00000   0.00000  -0.00000  -0.00001   0.00003
  82  O 1   h 2     -0.00000   0.00003   0.00000  -0.00000  -0.00000  -0.00002
  83  O 1   h 3     -0.00000  -0.00001   0.00000   0.00000  -0.00001   0.00004
  84  O 1   h 4     -0.00000  -0.00003  -0.00000   0.00000  -0.00001   0.00004
  85  O 1   h 5      0.00000   0.00005  -0.00000   0.00000   0.00001  -0.00011
  86  O 1   h 6      0.00000  -0.00001   0.00000   0.00000  -0.00002   0.00006
  87  O 1   h 7      0.00000   0.00001  -0.00000   0.00000  -0.00001   0.00002
  88  O 1   h 8     -0.00000   0.00005  -0.00000  -0.00000   0.00001  -0.00005
  89  O 1   h 9     -0.00000   0.00011  -0.00000  -0.00000   0.00002  -0.00013
  90  O 1   h10     -0.00000   0.00002   0.00000  -0.00000  -0.00000   0.00003
  91  O 1   h11      0.00000  -0.00002   0.00000   0.00000  -0.00000   0.00005
  92  H 1   s        0.00001   0.00034  -0.00000  -0.00000   0.00303  -0.02577
  93  H 1   s       -0.00009   0.00084  -0.00001   0.00002   0.00666  -0.05714
  94  H 1   s        0.00019  -0.01418   0.00028  -0.00030   0.00647  -0.06244
  95  H 1   s        0.00020  -0.00407   0.00048  -0.00104   0.00192  -0.01629
  96  H 1   s        0.00010  -0.00048  -0.00006   0.00003   0.00063  -0.00265
  97  H 1   px       0.00001   0.00005   0.00000  -0.00000   0.00008  -0.00060
  98  H 1   py      -0.00000   0.00021  -0.00000   0.00000   0.00017  -0.00149
  99  H 1   pz       0.00001   0.00013  -0.00000  -0.00000   0.00015  -0.00124
 100  H 1   px      -0.00003  -0.00011  -0.00000   0.00001   0.00024  -0.00181
 101  H 1   py      -0.00000  -0.00063   0.00000   0.00000   0.00052  -0.00441
 102  H 1   pz      -0.00004  -0.00036  -0.00000   0.00001   0.00049  -0.00375
 103  H 1   px       0.00004  -0.00235   0.00009  -0.00012   0.00018  -0.00247
 104  H 1   py       0.00012  -0.00802   0.00004  -0.00002   0.00045  -0.00418
 105  H 1   pz       0.00009  -0.00562   0.00015  -0.00009   0.00027  -0.00444
 106  H 1   px       0.00002  -0.00089   0.00008  -0.00022   0.00006  -0.00064
 107  H 1   py       0.00012  -0.00290   0.00012  -0.00022  -0.00007   0.00053
 108  H 1   pz       0.00006  -0.00209   0.00016  -0.00027   0.00026  -0.00071
 109  H 1   d 1      0.00000   0.00000  -0.00000  -0.00000   0.00004  -0.00031
 110  H 1   d 2      0.00000   0.00003  -0.00000  -0.00000   0.00008  -0.00063
 111  H 1   d 3      0.00000  -0.00000  -0.00000  -0.00000   0.00001  -0.00005
 112  H 1   d 4     -0.00001   0.00003  -0.00000   0.00000   0.00004  -0.00026
 113  H 1   d 5      0.00000  -0.00003  -0.00000   0.00000  -0.00003   0.00032
 114  H 1   d 1     -0.00002  -0.00081   0.00002  -0.00001   0.00004  -0.00033
 115  H 1   d 2     -0.00000  -0.00216   0.00003   0.00001   0.00007  -0.00080
 116  H 1   d 3     -0.00002   0.00017   0.00002   0.00000  -0.00004  -0.00007
 117  H 1   d 4      0.00001  -0.00068   0.00001  -0.00001   0.00001  -0.00041
 118  H 1   d 5     -0.00004   0.00154   0.00001  -0.00001  -0.00008   0.00040
 119  H 1   d 1      0.00002  -0.00111   0.00004  -0.00009  -0.00005  -0.00029
 120  H 1   d 2      0.00009  -0.00268   0.00005  -0.00007   0.00001  -0.00043
 121  H 1   d 3     -0.00002   0.00011   0.00005  -0.00003  -0.00003  -0.00022
 122  H 1   d 4     -0.00001  -0.00079   0.00006  -0.00007   0.00002  -0.00041
 123  H 1   d 5     -0.00003   0.00174   0.00002  -0.00006  -0.00014   0.00024
 124  H 1   f 1     -0.00000   0.00011  -0.00000   0.00000  -0.00001   0.00004
 125  H 1   f 2     -0.00000  -0.00012   0.00000  -0.00000   0.00001  -0.00013
 126  H 1   f 3     -0.00000  -0.00008   0.00000   0.00000   0.00001  -0.00011
 127  H 1   f 4     -0.00000   0.00015   0.00000  -0.00000  -0.00001   0.00010
 128  H 1   f 5      0.00000  -0.00002  -0.00000   0.00000   0.00000  -0.00005
 129  H 1   f 6     -0.00000   0.00022  -0.00000  -0.00000  -0.00001   0.00013
 130  H 1   f 7     -0.00000   0.00012   0.00000   0.00000  -0.00001   0.00010
 131  H 1   f 1     -0.00001   0.00048   0.00001  -0.00003  -0.00005   0.00014
 132  H 1   f 2     -0.00000  -0.00058   0.00001  -0.00002  -0.00000  -0.00018
 133  H 1   f 3     -0.00000  -0.00031   0.00002  -0.00002  -0.00002  -0.00009
 134  H 1   f 4     -0.00001   0.00056  -0.00000   0.00001  -0.00001   0.00012
 135  H 1   f 5     -0.00001  -0.00016   0.00001  -0.00001  -0.00001  -0.00005
 136  H 1   f 6     -0.00002   0.00087   0.00000  -0.00001  -0.00006   0.00027
 137  H 1   f 7      0.00000   0.00039  -0.00001   0.00001  -0.00002   0.00012
 138  H 1   g 1     -0.00000   0.00004   0.00000  -0.00000  -0.00001   0.00006
 139  H 1   g 2     -0.00000   0.00006   0.00000  -0.00000  -0.00001   0.00006
 140  H 1   g 3     -0.00000  -0.00003   0.00000  -0.00000   0.00000  -0.00006
 141  H 1   g 4     -0.00000   0.00005   0.00000  -0.00000  -0.00000   0.00003
 142  H 1   g 5     -0.00000   0.00005  -0.00000   0.00000  -0.00001   0.00007
 143  H 1   g 6     -0.00000   0.00001   0.00000   0.00000  -0.00000   0.00001
 144  H 1   g 7     -0.00000   0.00005   0.00000   0.00000  -0.00001   0.00007
 145  H 1   g 8     -0.00000   0.00006  -0.00000   0.00000  -0.00001   0.00010
 146  H 1   g 9      0.00000  -0.00003  -0.00000   0.00000   0.00000  -0.00001
 147  H 2   s        0.00000   0.00024   0.00000  -0.00000   0.00465  -0.02348
 148  H 2   s       -0.00014   0.00203  -0.00001   0.00007   0.00995  -0.05237
 149  H 2   s        0.00065  -0.01445   0.00053  -0.00031   0.01259  -0.05882
 150  H 2   s       -0.00021  -0.00280   0.00074  -0.00090  -0.00025  -0.01698
 151  H 2   s       -0.00042   0.00073   0.00019   0.00006  -0.00022  -0.00024
 152  H 2   px      -0.00001  -0.00017   0.00001   0.00000  -0.00016   0.00130
 153  H 2   py      -0.00001   0.00006   0.00000   0.00000  -0.00001  -0.00029
 154  H 2   pz      -0.00000  -0.00017   0.00001   0.00000  -0.00015   0.00138
 155  H 2   px       0.00004   0.00019  -0.00003  -0.00001  -0.00024   0.00376
 156  H 2   py       0.00004  -0.00009  -0.00000  -0.00000  -0.00013  -0.00071
 157  H 2   pz       0.00001   0.00019  -0.00007  -0.00001  -0.00025   0.00404
 158  H 2   px      -0.00030   0.00759  -0.00010   0.00010   0.00082   0.00506
 159  H 2   py      -0.00008  -0.00265   0.00015  -0.00008  -0.00154  -0.00047
 160  H 2   pz      -0.00028   0.00775   0.00012   0.00012   0.00118   0.00559
 161  H 2   px       0.00079   0.00150  -0.00024   0.00027   0.00094   0.00276
 162  H 2   py      -0.00047  -0.00029   0.00019  -0.00020  -0.00028  -0.00035
 163  H 2   pz       0.00024   0.00174  -0.00004   0.00039   0.00080   0.00242
 164  H 2   d 1      0.00001  -0.00003  -0.00000  -0.00000  -0.00004   0.00012
 165  H 2   d 2      0.00002  -0.00001  -0.00001   0.00000  -0.00005   0.00015
 166  H 2   d 3      0.00001   0.00003  -0.00000   0.00000   0.00004  -0.00021
 167  H 2   d 4     -0.00003   0.00015   0.00000   0.00000   0.00012  -0.00065
 168  H 2   d 5     -0.00001   0.00007   0.00001   0.00000   0.00003  -0.00029
 169  H 2   d 1     -0.00007   0.00083  -0.00001   0.00000  -0.00014   0.00015
 170  H 2   d 2     -0.00007   0.00074   0.00001  -0.00000  -0.00013   0.00006
 171  H 2   d 3     -0.00008  -0.00062   0.00001  -0.00000  -0.00001  -0.00032
 172  H 2   d 4      0.00013  -0.00261   0.00002  -0.00001   0.00018  -0.00080
 173  H 2   d 5      0.00006  -0.00112  -0.00001  -0.00001   0.00000  -0.00024
 174  H 2   d 1     -0.00005   0.00156  -0.00017   0.00011  -0.00016  -0.00042
 175  H 2   d 2      0.00004   0.00164  -0.00013   0.00011  -0.00048  -0.00013
 176  H 2   d 3      0.00024  -0.00109  -0.00013  -0.00006   0.00018  -0.00037
 177  H 2   d 4      0.00020  -0.00372   0.00002  -0.00011   0.00028  -0.00082
 178  H 2   d 5     -0.00002  -0.00132   0.00005  -0.00001  -0.00037  -0.00041
 179  H 2   f 1     -0.00000  -0.00009   0.00000   0.00000  -0.00001  -0.00003
 180  H 2   f 2     -0.00000  -0.00016   0.00000   0.00000  -0.00003  -0.00004
 181  H 2   f 3      0.00001  -0.00008   0.00001   0.00000  -0.00001  -0.00002
 182  H 2   f 4     -0.00001  -0.00009   0.00000   0.00000  -0.00001  -0.00003
 183  H 2   f 5      0.00000   0.00021  -0.00000  -0.00000  -0.00000   0.00013
 184  H 2   f 6      0.00000   0.00019  -0.00000   0.00000  -0.00001   0.00010
 185  H 2   f 7     -0.00000   0.00005  -0.00000   0.00000  -0.00002   0.00004
 186  H 2   f 1      0.00005  -0.00043   0.00002  -0.00002   0.00011  -0.00004
 187  H 2   f 2      0.00003  -0.00071   0.00001  -0.00004   0.00013  -0.00015
 188  H 2   f 3     -0.00007  -0.00024  -0.00003  -0.00001  -0.00001  -0.00010
 189  H 2   f 4      0.00009  -0.00036   0.00002   0.00000   0.00010  -0.00003
 190  H 2   f 5     -0.00002   0.00100   0.00003   0.00002  -0.00005   0.00025
 191  H 2   f 6     -0.00008   0.00099   0.00001   0.00001  -0.00012   0.00026
 192  H 2   f 7     -0.00001   0.00024   0.00000  -0.00000   0.00006   0.00002
 193  H 2   g 1     -0.00000   0.00004  -0.00000   0.00000  -0.00000   0.00002
 194  H 2   g 2     -0.00001   0.00009  -0.00000   0.00000   0.00001   0.00004
 195  H 2   g 3     -0.00000   0.00008  -0.00000   0.00000   0.00000   0.00004
 196  H 2   g 4      0.00001  -0.00000   0.00000   0.00000  -0.00000   0.00001
 197  H 2   g 5     -0.00001   0.00009  -0.00000   0.00000  -0.00001   0.00005
 198  H 2   g 6     -0.00001  -0.00002  -0.00000  -0.00000   0.00000  -0.00003
 199  H 2   g 7      0.00000  -0.00011  -0.00000  -0.00000   0.00001  -0.00008
 200  H 2   g 8     -0.00000  -0.00006  -0.00000   0.00000   0.00001  -0.00005
 201  H 2   g 9     -0.00000  -0.00000  -0.00000  -0.00000   0.00001  -0.00002
 202  O 2   s        0.97854  -0.00008   0.00005   0.00000  -0.01866  -0.00256
 203  O 2   s        0.03100  -0.00009   0.00006   0.00000   0.28509   0.04072
 204  O 2   s        0.08508  -0.00016   0.00010   0.00001   0.00786   0.00113
 205  O 2   s       -0.01570   0.00091  -0.00081  -0.00005   0.32530   0.04676
 206  O 2   s       -0.01217  -0.00275   0.00360   0.00011   0.45331   0.06502
 207  O 2   s       -0.00610  -0.00057   0.00296   0.00005   0.17417   0.02405
 208  O 2   px       0.00011  -0.00000   0.00000  -0.00000   0.00192   0.00166
 209  O 2   py      -0.00102   0.00000  -0.00001   0.00000  -0.01924  -0.00406
 210  O 2   pz       0.00041  -0.00000   0.00001   0.00000   0.00719   0.00246
 211  O 2   px       0.00008   0.00003  -0.00002   0.00000   0.00302   0.00273
 212  O 2   py      -0.00054  -0.00003   0.00009   0.00000  -0.03117  -0.00666
 213  O 2   pz       0.00015   0.00002  -0.00004  -0.00000   0.01170   0.00407
 214  O 2   px      -0.00100  -0.00021   0.00012   0.00001   0.00673   0.00385
 215  O 2   py       0.00745  -0.00000  -0.00043  -0.00000  -0.05554  -0.01049
 216  O 2   pz      -0.00262  -0.00003   0.00018   0.00000   0.02075   0.00590
 217  O 2   px      -0.00051  -0.00129   0.00014  -0.00008   0.00047   0.00248
 218  O 2   py      -0.00027   0.00163  -0.00238  -0.00011  -0.03367  -0.00867
 219  O 2   pz      -0.00006  -0.00124   0.00029   0.00000   0.01374   0.00619
 220  O 2   px      -0.00054  -0.00015   0.00042   0.00001  -0.00220  -0.00048
 221  O 2   py       0.00032  -0.00016  -0.00046   0.00002  -0.00261  -0.00177
 222  O 2   pz      -0.00053   0.00009   0.00027   0.00003   0.00135   0.00085
 223  O 2   d 1      0.00004   0.00000   0.00000   0.00000   0.00002   0.00000
 224  O 2   d 2     -0.00009   0.00001   0.00000  -0.00000  -0.00014  -0.00001
 225  O 2   d 3     -0.00023   0.00001  -0.00001  -0.00000  -0.00022  -0.00004
 226  O 2   d 4      0.00008  -0.00001   0.00001   0.00000   0.00009   0.00000
 227  O 2   d 5      0.00013  -0.00000  -0.00000   0.00000   0.00007   0.00001
 228  O 2   d 1     -0.00004  -0.00001  -0.00001  -0.00000   0.00036   0.00008
 229  O 2   d 2      0.00017  -0.00006  -0.00000   0.00000  -0.00079  -0.00009
 230  O 2   d 3      0.00040  -0.00005   0.00005   0.00000  -0.00184  -0.00030
 231  O 2   d 4     -0.00015   0.00006  -0.00003   0.00000   0.00056  -0.00000
 232  O 2   d 5     -0.00018   0.00002   0.00000  -0.00000   0.00092   0.00011
 233  O 2   d 1     -0.00082   0.00011   0.00011   0.00001   0.00147   0.00013
 234  O 2   d 2      0.00064   0.00019  -0.00007  -0.00000  -0.00450  -0.00056
 235  O 2   d 3      0.00224   0.00018  -0.00031  -0.00001  -0.00947  -0.00135
 236  O 2   d 4     -0.00063  -0.00028   0.00023  -0.00000   0.00323   0.00045
 237  O 2   d 5     -0.00213  -0.00017   0.00012   0.00000   0.00522   0.00066
 238  O 2   d 1      0.00078  -0.00068   0.00048   0.00005   0.00119   0.00094
 239  O 2   d 2     -0.00035  -0.00036  -0.00037  -0.00002  -0.00180   0.00045
 240  O 2   d 3     -0.00079   0.00047  -0.00050  -0.00003  -0.00548  -0.00105
 241  O 2   d 4     -0.00016   0.00019   0.00022  -0.00001   0.00168  -0.00037
 242  O 2   d 5      0.00053  -0.00070   0.00028   0.00001   0.00205   0.00012
 243  O 2   f 1     -0.00015  -0.00000   0.00000   0.00000  -0.00003  -0.00001
 244  O 2   f 2     -0.00002   0.00000  -0.00000   0.00000   0.00001  -0.00001
 245  O 2   f 3      0.00005   0.00001  -0.00001  -0.00000   0.00001  -0.00000
 246  O 2   f 4     -0.00005  -0.00000  -0.00000   0.00000   0.00000  -0.00001
 247  O 2   f 5      0.00001  -0.00000  -0.00000   0.00000  -0.00000   0.00001
 248  O 2   f 6      0.00005  -0.00000  -0.00001  -0.00000  -0.00000   0.00000
 249  O 2   f 7      0.00007  -0.00000  -0.00000  -0.00000   0.00002   0.00000
 250  O 2   f 1      0.00118   0.00001  -0.00003  -0.00000  -0.00248  -0.00033
 251  O 2   f 2      0.00014   0.00001  -0.00000  -0.00000  -0.00041  -0.00005
 252  O 2   f 3     -0.00043  -0.00002   0.00004   0.00000   0.00107   0.00016
 253  O 2   f 4      0.00044   0.00001  -0.00000  -0.00000  -0.00117  -0.00017
 254  O 2   f 5     -0.00009   0.00001   0.00000  -0.00000   0.00015  -0.00001
 255  O 2   f 6     -0.00034   0.00000   0.00003   0.00000   0.00062   0.00010
 256  O 2   f 7     -0.00053   0.00002   0.00003   0.00000   0.00110   0.00015
 257  O 2   f 1     -0.00079   0.00037  -0.00025  -0.00001  -0.00350  -0.00081
 258  O 2   f 2     -0.00013   0.00022  -0.00019   0.00001   0.00023  -0.00062
 259  O 2   f 3      0.00023   0.00002   0.00004   0.00001   0.00189   0.00007
 260  O 2   f 4     -0.00034   0.00022  -0.00005  -0.00000  -0.00163  -0.00048
 261  O 2   f 5      0.00012  -0.00010   0.00006   0.00000  -0.00007   0.00040
 262  O 2   f 6      0.00023  -0.00024  -0.00002  -0.00001   0.00043   0.00016
 263  O 2   f 7      0.00030  -0.00026   0.00030   0.00001   0.00218  -0.00000
 264  O 2   g 1      0.00005   0.00000  -0.00000   0.00000  -0.00007  -0.00002
 265  O 2   g 2      0.00009  -0.00000   0.00001  -0.00000  -0.00009  -0.00002
 266  O 2   g 3      0.00004  -0.00001   0.00001   0.00000  -0.00003  -0.00001
 267  O 2   g 4     -0.00004   0.00000   0.00000  -0.00000   0.00006   0.00001
 268  O 2   g 5     -0.00005  -0.00000   0.00000  -0.00000   0.00007   0.00000
 269  O 2   g 6      0.00003   0.00000   0.00000   0.00000  -0.00005  -0.00000
 270  O 2   g 7      0.00003  -0.00000   0.00001   0.00000  -0.00001  -0.00000
 271  O 2   g 8     -0.00003  -0.00001  -0.00001  -0.00000   0.00004   0.00000
 272  O 2   g 9      0.00010  -0.00001  -0.00000  -0.00000  -0.00013  -0.00002
 273  O 2   g 1     -0.00005   0.00001  -0.00003  -0.00000  -0.00048  -0.00005
 274  O 2   g 2     -0.00006   0.00006  -0.00003   0.00000  -0.00076  -0.00009
 275  O 2   g 3     -0.00000   0.00005  -0.00005  -0.00000  -0.00034   0.00001
 276  O 2   g 4      0.00002  -0.00001  -0.00000   0.00000   0.00039   0.00007
 277  O 2   g 5     -0.00004   0.00001   0.00001   0.00000   0.00026   0.00007
 278  O 2   g 6      0.00004   0.00001  -0.00004  -0.00000  -0.00020  -0.00007
 279  O 2   g 7      0.00006  -0.00001  -0.00003  -0.00000  -0.00019  -0.00003
 280  O 2   g 8     -0.00003   0.00004   0.00002   0.00000   0.00020   0.00005
 281  O 2   g 9     -0.00014   0.00007  -0.00002  -0.00000  -0.00078  -0.00011
 282  O 2   h 1      0.00003  -0.00000  -0.00000   0.00000   0.00000  -0.00000
 283  O 2   h 2      0.00003   0.00000  -0.00001  -0.00000  -0.00009  -0.00002
 284  O 2   h 3     -0.00005   0.00000  -0.00001   0.00000   0.00008   0.00001
 285  O 2   h 4     -0.00001  -0.00001   0.00000  -0.00000   0.00002   0.00000
 286  O 2   h 5      0.00002   0.00000  -0.00000  -0.00000  -0.00005  -0.00000
 287  O 2   h 6     -0.00004  -0.00000   0.00000   0.00000   0.00012   0.00001
 288  O 2   h 7      0.00001   0.00001  -0.00000   0.00000  -0.00005  -0.00001
 289  O 2   h 8      0.00003   0.00001   0.00000   0.00000  -0.00006  -0.00001
 290  O 2   h 9      0.00002  -0.00000  -0.00000  -0.00000  -0.00005  -0.00001
 291  O 2   h10      0.00001   0.00000   0.00000  -0.00000  -0.00008  -0.00002
 292  O 2   h11     -0.00004  -0.00001   0.00001  -0.00000   0.00002  -0.00000
 293  H 3   s       -0.00016  -0.00003   0.00002   0.00000   0.02240   0.00316
 294  H 3   s       -0.00181   0.00025   0.00004   0.00000   0.05084   0.00724
 295  H 3   s        0.00762   0.00128  -0.00262  -0.00017   0.05663   0.00800
 296  H 3   s        0.00283  -0.00026  -0.00098  -0.00002   0.01245   0.00005
 297  H 3   s        0.00009  -0.00001   0.00001  -0.00001   0.00155   0.00000
 298  H 3   px      -0.00015  -0.00000  -0.00000   0.00000   0.00137   0.00021
 299  H 3   py      -0.00013  -0.00001   0.00001   0.00000   0.00109   0.00014
 300  H 3   pz       0.00001   0.00001   0.00000   0.00000  -0.00016  -0.00001
 301  H 3   px      -0.00002   0.00006   0.00002  -0.00000   0.00440   0.00070
 302  H 3   py      -0.00005   0.00008  -0.00005  -0.00000   0.00339   0.00044
 303  H 3   pz       0.00004  -0.00005  -0.00003  -0.00000  -0.00050  -0.00001
 304  H 3   px       0.00516   0.00027  -0.00097  -0.00005   0.00420   0.00109
 305  H 3   py       0.00478   0.00021  -0.00049  -0.00003   0.00277   0.00018
 306  H 3   pz      -0.00099   0.00002   0.00036   0.00000  -0.00059   0.00029
 307  H 3   px       0.00200  -0.00005  -0.00064   0.00000   0.00045   0.00015
 308  H 3   py       0.00200  -0.00003  -0.00020  -0.00002  -0.00152  -0.00087
 309  H 3   pz      -0.00029  -0.00004   0.00011   0.00001  -0.00006   0.00069
 310  H 3   d 1     -0.00018   0.00001   0.00000   0.00000   0.00064   0.00009
 311  H 3   d 2      0.00004  -0.00002  -0.00001   0.00000  -0.00008  -0.00000
 312  H 3   d 3      0.00012  -0.00001  -0.00000   0.00000  -0.00037  -0.00006
 313  H 3   d 4      0.00003   0.00001  -0.00001  -0.00000  -0.00009  -0.00001
 314  H 3   d 5     -0.00002   0.00000   0.00001   0.00000   0.00017   0.00003
 315  H 3   d 1      0.00204   0.00004  -0.00012  -0.00001   0.00040   0.00013
 316  H 3   d 2     -0.00042   0.00004   0.00007  -0.00000  -0.00016   0.00002
 317  H 3   d 3     -0.00122   0.00000   0.00006   0.00000  -0.00034  -0.00008
 318  H 3   d 4     -0.00035  -0.00005   0.00008   0.00000  -0.00011   0.00002
 319  H 3   d 5      0.00016  -0.00001  -0.00006  -0.00001   0.00005   0.00012
 320  H 3   d 1      0.00268  -0.00003  -0.00017   0.00001  -0.00042   0.00009
 321  H 3   d 2     -0.00047   0.00010   0.00014   0.00001  -0.00032   0.00022
 322  H 3   d 3     -0.00150   0.00010   0.00001  -0.00000   0.00005  -0.00015
 323  H 3   d 4     -0.00051  -0.00003   0.00010  -0.00001   0.00002   0.00002
 324  H 3   d 5      0.00009   0.00003  -0.00026   0.00000   0.00030   0.00027
 325  H 3   f 1      0.00018  -0.00000  -0.00000  -0.00000   0.00009   0.00002
 326  H 3   f 2     -0.00008  -0.00000   0.00000   0.00000  -0.00004   0.00000
 327  H 3   f 3     -0.00011  -0.00001   0.00001   0.00000  -0.00004  -0.00001
 328  H 3   f 4      0.00005   0.00000  -0.00001   0.00000   0.00002  -0.00000
 329  H 3   f 5     -0.00012  -0.00000   0.00001   0.00000  -0.00007  -0.00001
 330  H 3   f 6     -0.00001   0.00000   0.00000   0.00000  -0.00001  -0.00001
 331  H 3   f 7     -0.00014   0.00000   0.00000   0.00000  -0.00004  -0.00000
 332  H 3   f 1      0.00085   0.00001  -0.00008   0.00000  -0.00005   0.00006
 333  H 3   f 2     -0.00034   0.00001   0.00005  -0.00000  -0.00009  -0.00000
 334  H 3   f 3     -0.00062   0.00003  -0.00003  -0.00000  -0.00003  -0.00005
 335  H 3   f 4      0.00032  -0.00002  -0.00003  -0.00000   0.00011  -0.00000
 336  H 3   f 5     -0.00065   0.00005  -0.00001  -0.00000  -0.00003  -0.00004
 337  H 3   f 6      0.00005  -0.00008  -0.00002  -0.00000   0.00007  -0.00001
 338  H 3   f 7     -0.00072  -0.00002  -0.00003  -0.00000   0.00001   0.00000
 339  H 3   g 1      0.00001  -0.00000  -0.00001  -0.00000   0.00002   0.00000
 340  H 3   g 2     -0.00003  -0.00001   0.00000  -0.00000  -0.00002  -0.00000
 341  H 3   g 3     -0.00011   0.00000  -0.00000  -0.00000  -0.00003  -0.00001
 342  H 3   g 4      0.00005  -0.00000  -0.00001  -0.00000   0.00001   0.00000
 343  H 3   g 5      0.00007  -0.00001   0.00000   0.00000   0.00002   0.00001
 344  H 3   g 6      0.00005  -0.00000  -0.00000  -0.00000   0.00001   0.00000
 345  H 3   g 7     -0.00001   0.00001  -0.00000   0.00000  -0.00001  -0.00000
 346  H 3   g 8      0.00004  -0.00001  -0.00001  -0.00000   0.00002  -0.00000
 347  H 3   g 9     -0.00015  -0.00000  -0.00000  -0.00000  -0.00005  -0.00001
 348  H 4   s       -0.00017  -0.00002   0.00002   0.00000   0.02263   0.00385
 349  H 4   s       -0.00177   0.00008  -0.00001  -0.00000   0.05147   0.00862
 350  H 4   s        0.00887   0.00227  -0.00199  -0.00001   0.05695   0.01069
 351  H 4   s        0.00423   0.00060  -0.00166  -0.00001   0.01654   0.00433
 352  H 4   s        0.00009  -0.00002  -0.00004   0.00001   0.00212   0.00028
 353  H 4   px       0.00017   0.00002  -0.00000  -0.00000  -0.00163  -0.00026
 354  H 4   py      -0.00009   0.00002   0.00001   0.00000   0.00064   0.00010
 355  H 4   pz       0.00006  -0.00001   0.00000   0.00000  -0.00045  -0.00008
 356  H 4   px       0.00001  -0.00009   0.00002   0.00000  -0.00496  -0.00081
 357  H 4   py       0.00002  -0.00008  -0.00004  -0.00000   0.00201   0.00029
 358  H 4   pz      -0.00001   0.00002   0.00000  -0.00000  -0.00149  -0.00016
 359  H 4   px      -0.00633  -0.00081   0.00083   0.00001  -0.00480  -0.00094
 360  H 4   py       0.00328   0.00076  -0.00042  -0.00001   0.00032   0.00046
 361  H 4   pz      -0.00215  -0.00013   0.00018   0.00002  -0.00049  -0.00064
 362  H 4   px      -0.00286  -0.00026   0.00069   0.00000  -0.00101  -0.00033
 363  H 4   py       0.00150   0.00043  -0.00026   0.00000  -0.00088   0.00047
 364  H 4   pz      -0.00075  -0.00021   0.00021  -0.00001  -0.00002  -0.00032
 365  H 4   d 1      0.00012   0.00002  -0.00000  -0.00000  -0.00044  -0.00006
 366  H 4   d 2      0.00006  -0.00000  -0.00000  -0.00000  -0.00014  -0.00001
 367  H 4   d 3      0.00009   0.00000  -0.00000   0.00000  -0.00031  -0.00006
 368  H 4   d 4     -0.00009   0.00001  -0.00000   0.00000   0.00032   0.00003
 369  H 4   d 5     -0.00008  -0.00000   0.00000  -0.00000   0.00044   0.00008
 370  H 4   d 1     -0.00158  -0.00012   0.00012   0.00000   0.00001  -0.00009
 371  H 4   d 2     -0.00063   0.00001   0.00003   0.00000  -0.00001  -0.00006
 372  H 4   d 3     -0.00100  -0.00008   0.00007  -0.00000  -0.00020  -0.00005
 373  H 4   d 4      0.00108  -0.00004  -0.00001  -0.00001   0.00011   0.00012
 374  H 4   d 5      0.00105   0.00013  -0.00006   0.00000   0.00023   0.00006
 375  H 4   d 1     -0.00213  -0.00022   0.00013  -0.00001   0.00076  -0.00015
 376  H 4   d 2     -0.00057  -0.00009   0.00016   0.00001   0.00025  -0.00022
 377  H 4   d 3     -0.00117  -0.00010   0.00011   0.00001  -0.00001   0.00003
 378  H 4   d 4      0.00127   0.00001  -0.00005  -0.00000  -0.00041   0.00025
 379  H 4   d 5      0.00146  -0.00009  -0.00018  -0.00000   0.00024  -0.00018
 380  H 4   f 1      0.00020   0.00001  -0.00001  -0.00000   0.00006   0.00003
 381  H 4   f 2      0.00014  -0.00000   0.00000  -0.00000   0.00005   0.00001
 382  H 4   f 3     -0.00005  -0.00000   0.00001  -0.00000  -0.00001  -0.00000
 383  H 4   f 4      0.00011   0.00000  -0.00000  -0.00000   0.00005   0.00001
 384  H 4   f 5      0.00010   0.00001  -0.00001   0.00000   0.00005   0.00002
 385  H 4   f 6     -0.00008  -0.00000   0.00001   0.00000  -0.00006  -0.00001
 386  H 4   f 7     -0.00002  -0.00001  -0.00001  -0.00000  -0.00003  -0.00002
 387  H 4   f 1      0.00100   0.00002  -0.00005   0.00000  -0.00012   0.00003
 388  H 4   f 2      0.00061  -0.00000  -0.00006  -0.00000  -0.00005   0.00009
 389  H 4   f 3     -0.00027  -0.00001  -0.00002  -0.00000  -0.00001  -0.00001
 390  H 4   f 4      0.00059  -0.00003  -0.00002  -0.00000   0.00000   0.00007
 391  H 4   f 5      0.00049   0.00003  -0.00003  -0.00000  -0.00004  -0.00003
 392  H 4   f 6     -0.00040   0.00004  -0.00005   0.00000   0.00007  -0.00002
 393  H 4   f 7     -0.00011   0.00000   0.00004   0.00000  -0.00001   0.00007
 394  H 4   g 1     -0.00012   0.00000   0.00000  -0.00000  -0.00003  -0.00002
 395  H 4   g 2     -0.00011   0.00001   0.00000   0.00000  -0.00004  -0.00001
 396  H 4   g 3      0.00004  -0.00000  -0.00000   0.00000   0.00001   0.00000
 397  H 4   g 4      0.00006  -0.00000  -0.00000   0.00000   0.00001   0.00000
 398  H 4   g 5      0.00002   0.00000  -0.00000   0.00000   0.00000   0.00000
 399  H 4   g 6     -0.00011   0.00001   0.00000   0.00000  -0.00004  -0.00001
 400  H 4   g 7     -0.00003  -0.00000   0.00000  -0.00000  -0.00000  -0.00000
 401  H 4   g 8      0.00001  -0.00001   0.00001   0.00000   0.00002   0.00000
 402  H 4   g 9     -0.00005   0.00001  -0.00000   0.00000  -0.00001  -0.00000
 403  O 3   s        0.00005   0.00001   0.97839  -0.00001  -0.00104  -0.00012
 404  O 3   s        0.00007   0.00000   0.03079  -0.00001   0.01557   0.00202
 405  O 3   s        0.00010   0.00001   0.08490  -0.00002   0.00055   0.00009
 406  O 3   s       -0.00008   0.00001  -0.01510   0.00009   0.01724   0.00232
 407  O 3   s       -0.00057  -0.00018  -0.01400  -0.00014   0.02225   0.00157
 408  O 3   s       -0.00010  -0.00020   0.00000  -0.00061   0.01027  -0.00020
 409  O 3   px       0.00000   0.00000  -0.00096  -0.00000  -0.00105  -0.00011
 410  O 3   py       0.00000   0.00000  -0.00026  -0.00000  -0.00090  -0.00010
 411  O 3   pz       0.00000   0.00000  -0.00067   0.00000  -0.00109  -0.00009
 412  O 3   px      -0.00002   0.00000  -0.00062   0.00000  -0.00173  -0.00022
 413  O 3   py      -0.00008  -0.00000  -0.00023   0.00000  -0.00145  -0.00017
 414  O 3   pz      -0.00003  -0.00001  -0.00046  -0.00002  -0.00176  -0.00019
 415  O 3   px      -0.00005  -0.00001   0.00791  -0.00004  -0.00264  -0.00009
 416  O 3   py       0.00078   0.00009   0.00179   0.00002  -0.00159  -0.00010
 417  O 3   pz       0.00032   0.00008   0.00534   0.00005  -0.00247   0.00004
 418  O 3   px      -0.00010   0.00003   0.00113   0.00027  -0.00162   0.00023
 419  O 3   py       0.00055   0.00005  -0.00164  -0.00014  -0.00260  -0.00024
 420  O 3   pz       0.00024   0.00012  -0.00029   0.00035  -0.00223   0.00025
 421  O 3   px      -0.00003   0.00004   0.00005   0.00010   0.00004   0.00023
 422  O 3   py       0.00006  -0.00001  -0.00042  -0.00006  -0.00093  -0.00009
 423  O 3   pz       0.00003   0.00002  -0.00026   0.00008  -0.00047   0.00008
 424  O 3   d 1      0.00000  -0.00000  -0.00014   0.00000  -0.00000  -0.00000
 425  O 3   d 2      0.00001   0.00000   0.00015   0.00000   0.00003   0.00000
 426  O 3   d 3      0.00000   0.00000  -0.00013   0.00000  -0.00001  -0.00000
 427  O 3   d 4     -0.00000  -0.00000   0.00012  -0.00000   0.00001   0.00000
 428  O 3   d 5     -0.00001  -0.00000  -0.00002  -0.00000  -0.00001  -0.00000
 429  O 3   d 1      0.00001   0.00000   0.00023  -0.00000  -0.00003  -0.00000
 430  O 3   d 2     -0.00001  -0.00000  -0.00025  -0.00000   0.00008   0.00000
 431  O 3   d 3     -0.00000  -0.00000   0.00023   0.00000  -0.00005  -0.00001
 432  O 3   d 4      0.00001   0.00000  -0.00023   0.00001   0.00008   0.00001
 433  O 3   d 5      0.00002   0.00000   0.00001   0.00000   0.00000   0.00000
 434  O 3   d 1     -0.00026  -0.00001   0.00163  -0.00001  -0.00034  -0.00001
 435  O 3   d 2     -0.00026  -0.00001  -0.00139   0.00002   0.00047   0.00003
 436  O 3   d 3     -0.00000  -0.00001   0.00146  -0.00002  -0.00028  -0.00002
 437  O 3   d 4     -0.00006  -0.00003  -0.00113  -0.00006   0.00028  -0.00008
 438  O 3   d 5      0.00022   0.00002   0.00030   0.00000  -0.00015   0.00001
 439  O 3   d 1     -0.00005   0.00001   0.00005   0.00005  -0.00013   0.00014
 440  O 3   d 2     -0.00019   0.00002   0.00082   0.00006   0.00074   0.00007
 441  O 3   d 3      0.00001   0.00001  -0.00017  -0.00007  -0.00036   0.00002
 442  O 3   d 4     -0.00001  -0.00006   0.00041  -0.00019   0.00006  -0.00013
 443  O 3   d 5      0.00022   0.00003  -0.00031  -0.00004  -0.00069   0.00000
 444  O 3   f 1     -0.00001  -0.00000   0.00013   0.00000  -0.00000  -0.00000
 445  O 3   f 2     -0.00001   0.00000   0.00001   0.00000  -0.00000   0.00000
 446  O 3   f 3      0.00000  -0.00000  -0.00005  -0.00000   0.00000   0.00000
 447  O 3   f 4      0.00000  -0.00000   0.00008   0.00000  -0.00000   0.00000
 448  O 3   f 5     -0.00000   0.00000   0.00005   0.00000   0.00000  -0.00000
 449  O 3   f 6     -0.00000  -0.00000   0.00005  -0.00000  -0.00000  -0.00000
 450  O 3   f 7      0.00001  -0.00000   0.00003   0.00000   0.00000   0.00000
 451  O 3   f 1      0.00001   0.00000  -0.00104   0.00000   0.00014   0.00001
 452  O 3   f 2      0.00006  -0.00001  -0.00008  -0.00000   0.00002  -0.00000
 453  O 3   f 3     -0.00001   0.00001   0.00043  -0.00000  -0.00006  -0.00001
 454  O 3   f 4     -0.00002  -0.00000  -0.00061  -0.00001   0.00010  -0.00000
 455  O 3   f 5      0.00001   0.00000  -0.00036   0.00000   0.00003   0.00001
 456  O 3   f 6     -0.00003   0.00000  -0.00040   0.00000   0.00007   0.00001
 457  O 3   f 7     -0.00004   0.00000  -0.00022  -0.00000  -0.00001  -0.00001
 458  O 3   f 1     -0.00006   0.00001   0.00032  -0.00000   0.00031   0.00002
 459  O 3   f 2      0.00006  -0.00003  -0.00006  -0.00004   0.00003  -0.00007
 460  O 3   f 3      0.00002  -0.00001  -0.00015   0.00001  -0.00006  -0.00000
 461  O 3   f 4     -0.00004  -0.00003   0.00033  -0.00002   0.00022  -0.00004
 462  O 3   f 5      0.00000   0.00001   0.00001   0.00005   0.00008   0.00002
 463  O 3   f 6     -0.00008   0.00001   0.00017   0.00003   0.00025   0.00003
 464  O 3   f 7     -0.00009  -0.00001  -0.00005  -0.00001   0.00004  -0.00001
 465  O 3   g 1     -0.00000   0.00000   0.00009  -0.00000  -0.00001   0.00000
 466  O 3   g 2      0.00000  -0.00000   0.00011  -0.00000  -0.00001  -0.00000
 467  O 3   g 3      0.00000  -0.00000  -0.00006  -0.00000   0.00000  -0.00000
 468  O 3   g 4      0.00000  -0.00000   0.00002   0.00000  -0.00000  -0.00000
 469  O 3   g 5      0.00000   0.00000   0.00002  -0.00000  -0.00000  -0.00000
 470  O 3   g 6     -0.00000  -0.00000   0.00005   0.00000  -0.00000  -0.00000
 471  O 3   g 7      0.00000   0.00000   0.00006   0.00000  -0.00001   0.00000
 472  O 3   g 8      0.00000   0.00000   0.00004  -0.00000  -0.00000   0.00000
 473  O 3   g 9     -0.00000  -0.00000   0.00001  -0.00000  -0.00000  -0.00000
 474  O 3   g 1      0.00002  -0.00001   0.00005   0.00000  -0.00005  -0.00002
 475  O 3   g 2      0.00000   0.00000   0.00004   0.00001  -0.00009  -0.00000
 476  O 3   g 3     -0.00001   0.00001  -0.00003   0.00000   0.00002   0.00001
 477  O 3   g 4      0.00002  -0.00000  -0.00003  -0.00001  -0.00002  -0.00001
 478  O 3   g 5      0.00000   0.00000  -0.00006   0.00001  -0.00003   0.00001
 479  O 3   g 6      0.00001   0.00001   0.00001   0.00000  -0.00003   0.00001
 480  O 3   g 7      0.00000  -0.00000   0.00002  -0.00000  -0.00005  -0.00001
 481  O 3   g 8      0.00003  -0.00001   0.00002   0.00000  -0.00002  -0.00001
 482  O 3   g 9      0.00001   0.00001   0.00007   0.00001   0.00003   0.00001
 483  O 3   h 1     -0.00000  -0.00000  -0.00001   0.00000   0.00000   0.00000
 484  O 3   h 2     -0.00000   0.00000  -0.00006  -0.00000   0.00002   0.00000
 485  O 3   h 3      0.00000  -0.00000   0.00000  -0.00000   0.00001   0.00000
 486  O 3   h 4     -0.00000   0.00000   0.00003   0.00000  -0.00000   0.00000
 487  O 3   h 5     -0.00000   0.00000  -0.00004   0.00000   0.00001   0.00000
 488  O 3   h 6      0.00000  -0.00000   0.00003   0.00000  -0.00000  -0.00000
 489  O 3   h 7     -0.00000  -0.00000   0.00002  -0.00000   0.00000  -0.00000
 490  O 3   h 8      0.00000  -0.00000  -0.00001  -0.00000   0.00000  -0.00000
 491  O 3   h 9     -0.00000   0.00000  -0.00001  -0.00000   0.00001   0.00000
 492  O 3   h10     -0.00000  -0.00000   0.00001  -0.00000  -0.00001  -0.00000
 493  O 3   h11      0.00000  -0.00000  -0.00004  -0.00000  -0.00000  -0.00000
 494  H 5   s        0.00000   0.00000  -0.00028  -0.00000   0.00127   0.00015
 495  H 5   s        0.00011   0.00000  -0.00105   0.00002   0.00278   0.00024
 496  H 5   s       -0.00070   0.00000   0.01087   0.00020   0.00300   0.00129
 497  H 5   s        0.00001   0.00036   0.00181   0.00049   0.00157   0.00093
 498  H 5   s       -0.00002   0.00001   0.00038   0.00007   0.00049  -0.00006
 499  H 5   px       0.00000  -0.00000  -0.00021   0.00000   0.00009   0.00001
 500  H 5   py      -0.00000  -0.00000   0.00012  -0.00000  -0.00006  -0.00001
 501  H 5   pz      -0.00000  -0.00000  -0.00005   0.00000   0.00001  -0.00000
 502  H 5   px       0.00002   0.00000   0.00038   0.00000   0.00023   0.00002
 503  H 5   py      -0.00001   0.00001  -0.00027  -0.00000  -0.00018  -0.00000
 504  H 5   pz       0.00000   0.00001   0.00006   0.00000   0.00003   0.00004
 505  H 5   px      -0.00035   0.00002   0.00736   0.00007   0.00021   0.00040
 506  H 5   py       0.00027   0.00000  -0.00367  -0.00002  -0.00024  -0.00022
 507  H 5   pz      -0.00005  -0.00008   0.00199  -0.00012  -0.00000  -0.00015
 508  H 5   px      -0.00012   0.00010   0.00228   0.00019   0.00022   0.00054
 509  H 5   py      -0.00001  -0.00018  -0.00120  -0.00009  -0.00050  -0.00014
 510  H 5   pz      -0.00011  -0.00012   0.00059  -0.00017  -0.00013   0.00020
 511  H 5   d 1     -0.00001  -0.00000   0.00008  -0.00000  -0.00003  -0.00000
 512  H 5   d 2      0.00000   0.00000   0.00004  -0.00000   0.00000  -0.00001
 513  H 5   d 3     -0.00001   0.00000   0.00005   0.00000  -0.00002  -0.00000
 514  H 5   d 4      0.00000   0.00000  -0.00005   0.00000   0.00001  -0.00000
 515  H 5   d 5     -0.00000  -0.00000  -0.00009   0.00000   0.00001  -0.00000
 516  H 5   d 1      0.00008   0.00001  -0.00184   0.00000  -0.00002  -0.00004
 517  H 5   d 2     -0.00001  -0.00001  -0.00053   0.00002  -0.00002   0.00003
 518  H 5   d 3      0.00005  -0.00001  -0.00114  -0.00002  -0.00001  -0.00002
 519  H 5   d 4     -0.00003  -0.00002   0.00090  -0.00002   0.00001   0.00000
 520  H 5   d 5     -0.00002   0.00002   0.00131   0.00000   0.00001   0.00004
 521  H 5   d 1      0.00013  -0.00003  -0.00212  -0.00002  -0.00011  -0.00012
 522  H 5   d 2      0.00009   0.00009  -0.00054   0.00007   0.00006   0.00001
 523  H 5   d 3      0.00006  -0.00003  -0.00134  -0.00002  -0.00005  -0.00017
 524  H 5   d 4     -0.00004  -0.00006   0.00100  -0.00012  -0.00000  -0.00008
 525  H 5   d 5     -0.00009  -0.00004   0.00144   0.00003  -0.00009   0.00010
 526  H 5   f 1     -0.00000  -0.00000  -0.00024  -0.00000  -0.00001  -0.00000
 527  H 5   f 2     -0.00000   0.00000  -0.00011   0.00000  -0.00000   0.00000
 528  H 5   f 3     -0.00000   0.00000   0.00007   0.00000   0.00000   0.00000
 529  H 5   f 4     -0.00000  -0.00000  -0.00011   0.00000  -0.00000  -0.00000
 530  H 5   f 5      0.00000  -0.00000  -0.00012  -0.00000  -0.00000  -0.00000
 531  H 5   f 6     -0.00000  -0.00000   0.00006   0.00000   0.00000  -0.00000
 532  H 5   f 7     -0.00000   0.00000   0.00003   0.00000  -0.00000  -0.00000
 533  H 5   f 1      0.00005   0.00001  -0.00106   0.00000  -0.00000  -0.00003
 534  H 5   f 2      0.00002   0.00002  -0.00048   0.00003  -0.00000   0.00002
 535  H 5   f 3     -0.00001   0.00000   0.00032   0.00000   0.00001   0.00002
 536  H 5   f 4      0.00002   0.00002  -0.00043   0.00002   0.00000   0.00002
 537  H 5   f 5      0.00003  -0.00001  -0.00059  -0.00000  -0.00001  -0.00003
 538  H 5   f 6      0.00000   0.00000   0.00033  -0.00002   0.00002   0.00000
 539  H 5   f 7      0.00000  -0.00001   0.00009   0.00000  -0.00002   0.00001
 540  H 5   g 1      0.00000   0.00000  -0.00011  -0.00000  -0.00000  -0.00000
 541  H 5   g 2      0.00000   0.00000  -0.00007   0.00000  -0.00000   0.00000
 542  H 5   g 3     -0.00000   0.00000   0.00006   0.00000   0.00000   0.00000
 543  H 5   g 4     -0.00000  -0.00000   0.00004  -0.00000  -0.00000  -0.00000
 544  H 5   g 5     -0.00000   0.00000   0.00003   0.00000   0.00000   0.00000
 545  H 5   g 6      0.00000   0.00000  -0.00007   0.00000  -0.00000   0.00000
 546  H 5   g 7      0.00000   0.00000  -0.00003  -0.00000  -0.00000  -0.00000
 547  H 5   g 8     -0.00000   0.00000   0.00001   0.00000   0.00000   0.00000
 548  H 5   g 9      0.00000   0.00000  -0.00004   0.00000  -0.00000  -0.00000
 549  H 6   s       -0.00000  -0.00000  -0.00012  -0.00000   0.00245   0.00026
 550  H 6   s       -0.00024   0.00000  -0.00175  -0.00001   0.00493   0.00045
 551  H 6   s        0.00177   0.00010   0.00691   0.00004   0.00881   0.00165
 552  H 6   s        0.00043  -0.00010  -0.00014   0.00012   0.00029   0.00053
 553  H 6   s       -0.00006  -0.00008  -0.00031  -0.00010  -0.00051  -0.00006
 554  H 6   px      -0.00000   0.00000  -0.00002  -0.00000   0.00001   0.00001
 555  H 6   py      -0.00000   0.00001  -0.00013   0.00000   0.00006   0.00001
 556  H 6   pz      -0.00000   0.00001  -0.00008  -0.00000   0.00005   0.00002
 557  H 6   px       0.00001  -0.00001  -0.00008   0.00000   0.00006   0.00000
 558  H 6   py      -0.00002  -0.00004  -0.00020  -0.00001  -0.00015  -0.00008
 559  H 6   pz      -0.00002  -0.00004  -0.00017   0.00001  -0.00011  -0.00005
 560  H 6   px       0.00003   0.00003   0.00121  -0.00002  -0.00008   0.00011
 561  H 6   py       0.00078   0.00016   0.00558   0.00007  -0.00070   0.00024
 562  H 6   pz       0.00056   0.00015   0.00380  -0.00002  -0.00044   0.00025
 563  H 6   px       0.00013   0.00016   0.00002  -0.00002  -0.00036   0.00034
 564  H 6   py      -0.00031  -0.00013   0.00058   0.00003   0.00049   0.00022
 565  H 6   pz      -0.00006   0.00002   0.00040  -0.00006  -0.00027   0.00050
 566  H 6   d 1      0.00001  -0.00000  -0.00010   0.00000   0.00000   0.00000
 567  H 6   d 2     -0.00005   0.00000  -0.00021  -0.00000   0.00004   0.00000
 568  H 6   d 3      0.00000   0.00001  -0.00000   0.00000  -0.00001  -0.00000
 569  H 6   d 4      0.00000  -0.00000  -0.00005  -0.00000   0.00001  -0.00000
 570  H 6   d 5      0.00002   0.00000   0.00014  -0.00000  -0.00003   0.00000
 571  H 6   d 1     -0.00003   0.00001   0.00065  -0.00000  -0.00003  -0.00001
 572  H 6   d 2      0.00028   0.00000   0.00180   0.00001   0.00032   0.00006
 573  H 6   d 3     -0.00000  -0.00003  -0.00007  -0.00001  -0.00004  -0.00001
 574  H 6   d 4     -0.00000   0.00001   0.00039   0.00000  -0.00002   0.00002
 575  H 6   d 5     -0.00016  -0.00000  -0.00128  -0.00000  -0.00025  -0.00007
 576  H 6   d 1      0.00011   0.00005   0.00058  -0.00001  -0.00011   0.00008
 577  H 6   d 2      0.00026   0.00003   0.00237  -0.00002   0.00064   0.00025
 578  H 6   d 3      0.00002   0.00004  -0.00017  -0.00003  -0.00022  -0.00013
 579  H 6   d 4      0.00003  -0.00000   0.00034  -0.00002  -0.00001  -0.00006
 580  H 6   d 5     -0.00029   0.00000  -0.00179  -0.00005  -0.00073  -0.00017
 581  H 6   f 1     -0.00000   0.00000  -0.00011   0.00000   0.00003   0.00000
 582  H 6   f 2      0.00000  -0.00000   0.00008   0.00000   0.00000   0.00000
 583  H 6   f 3     -0.00000  -0.00000   0.00008  -0.00000  -0.00001  -0.00000
 584  H 6   f 4      0.00000   0.00000  -0.00011  -0.00000   0.00002   0.00000
 585  H 6   f 5     -0.00000   0.00001   0.00001  -0.00000   0.00001  -0.00000
 586  H 6   f 6      0.00001  -0.00000  -0.00018  -0.00000   0.00004   0.00000
 587  H 6   f 7      0.00000   0.00000  -0.00008  -0.00000  -0.00000  -0.00000
 588  H 6   f 1     -0.00008  -0.00000  -0.00058  -0.00001  -0.00021  -0.00004
 589  H 6   f 2     -0.00001   0.00001   0.00043  -0.00001  -0.00001   0.00002
 590  H 6   f 3      0.00008   0.00002   0.00038  -0.00001   0.00010   0.00003
 591  H 6   f 4     -0.00007  -0.00002  -0.00062   0.00000  -0.00016  -0.00004
 592  H 6   f 5      0.00001  -0.00003   0.00007   0.00000  -0.00003   0.00002
 593  H 6   f 6     -0.00017  -0.00001  -0.00106   0.00000  -0.00030  -0.00007
 594  H 6   f 7     -0.00000  -0.00003  -0.00041   0.00000  -0.00001  -0.00001
 595  H 6   g 1      0.00000  -0.00000  -0.00007   0.00000  -0.00000  -0.00000
 596  H 6   g 2     -0.00002  -0.00000  -0.00014  -0.00000  -0.00000  -0.00000
 597  H 6   g 3     -0.00000  -0.00000   0.00004  -0.00000   0.00000   0.00000
 598  H 6   g 4     -0.00001  -0.00000  -0.00008  -0.00000  -0.00000  -0.00000
 599  H 6   g 5     -0.00001  -0.00000  -0.00010   0.00000  -0.00000  -0.00000
 600  H 6   g 6      0.00000  -0.00000  -0.00002  -0.00000   0.00000  -0.00000
 601  H 6   g 7     -0.00001  -0.00000  -0.00010   0.00000  -0.00000  -0.00000
 602  H 6   g 8      0.00000  -0.00000  -0.00009   0.00000  -0.00000  -0.00000
 603  H 6   g 9      0.00001  -0.00000   0.00007   0.00000   0.00000   0.00000
 604  O 4   s       -0.00000   0.00000   0.00001  -0.97830  -0.00003   0.00043
 605  O 4   s       -0.00000  -0.00001   0.00001  -0.03065   0.00038  -0.00649
 606  O 4   s       -0.00001  -0.00002   0.00002  -0.08464  -0.00000  -0.00020
 607  O 4   s        0.00000   0.00004  -0.00000   0.01433   0.00049  -0.00739
 608  O 4   s        0.00012   0.00014  -0.00029   0.01315   0.00091  -0.01018
 609  O 4   s        0.00006  -0.00030  -0.00006   0.00129   0.00010  -0.00482
 610  O 4   px       0.00000  -0.00000  -0.00000   0.00012  -0.00001   0.00013
 611  O 4   py      -0.00000  -0.00000   0.00000   0.00106  -0.00004   0.00057
 612  O 4   pz       0.00000   0.00000  -0.00000  -0.00054   0.00002  -0.00024
 613  O 4   px      -0.00001   0.00000   0.00001   0.00007  -0.00004   0.00025
 614  O 4   py       0.00000   0.00001  -0.00001   0.00058  -0.00007   0.00094
 615  O 4   pz      -0.00000  -0.00000   0.00001  -0.00029   0.00002  -0.00039
 616  O 4   px       0.00005  -0.00003  -0.00008  -0.00070   0.00014   0.00008
 617  O 4   py      -0.00002  -0.00006   0.00006  -0.00728  -0.00016   0.00150
 618  O 4   pz       0.00003   0.00002  -0.00008   0.00372   0.00013  -0.00072
 619  O 4   px       0.00009   0.00002  -0.00010   0.00003   0.00039  -0.00015
 620  O 4   py       0.00000   0.00007   0.00001  -0.00035   0.00014   0.00160
 621  O 4   pz       0.00001  -0.00014   0.00004   0.00023   0.00007  -0.00073
 622  O 4   px       0.00001   0.00008  -0.00005   0.00005  -0.00006  -0.00039
 623  O 4   py      -0.00002   0.00006  -0.00000   0.00005  -0.00001   0.00057
 624  O 4   pz       0.00000  -0.00003  -0.00000  -0.00002  -0.00004  -0.00029
 625  O 4   d 1     -0.00000  -0.00000  -0.00000  -0.00004   0.00000  -0.00001
 626  O 4   d 2      0.00000   0.00000  -0.00000   0.00013   0.00000   0.00000
 627  O 4   d 3      0.00000   0.00000  -0.00000   0.00015   0.00000   0.00001
 628  O 4   d 4      0.00000   0.00000  -0.00000  -0.00014   0.00000  -0.00000
 629  O 4   d 5      0.00000   0.00000   0.00000  -0.00012  -0.00000   0.00000
 630  O 4   d 1      0.00000   0.00001   0.00000   0.00007   0.00001  -0.00001
 631  O 4   d 2     -0.00000  -0.00000   0.00000  -0.00023  -0.00000   0.00003
 632  O 4   d 3     -0.00000  -0.00000   0.00000  -0.00025  -0.00001   0.00004
 633  O 4   d 4     -0.00000  -0.00000   0.00000   0.00022  -0.00000  -0.00003
 634  O 4   d 5     -0.00000  -0.00000   0.00000   0.00017   0.00000  -0.00003
 635  O 4   d 1     -0.00002  -0.00003   0.00004   0.00040  -0.00007  -0.00002
 636  O 4   d 2     -0.00000  -0.00000   0.00002  -0.00108  -0.00002   0.00016
 637  O 4   d 3      0.00000  -0.00000   0.00000  -0.00162   0.00001   0.00012
 638  O 4   d 4      0.00003   0.00003  -0.00004   0.00166   0.00007  -0.00015
 639  O 4   d 5      0.00001   0.00001  -0.00002   0.00172   0.00002   0.00001
 640  O 4   d 1     -0.00001  -0.00006   0.00004  -0.00017  -0.00000  -0.00008
 641  O 4   d 2      0.00001   0.00007  -0.00004   0.00044   0.00010   0.00020
 642  O 4   d 3     -0.00001  -0.00000   0.00004   0.00042   0.00007   0.00000
 643  O 4   d 4      0.00003   0.00006  -0.00005  -0.00029   0.00007  -0.00015
 644  O 4   d 5      0.00002   0.00001  -0.00006  -0.00014   0.00006   0.00048
 645  O 4   f 1      0.00000  -0.00000  -0.00000   0.00015  -0.00000   0.00000
 646  O 4   f 2      0.00000   0.00000  -0.00000   0.00007   0.00000   0.00000
 647  O 4   f 3      0.00000   0.00000  -0.00000  -0.00003   0.00000   0.00000
 648  O 4   f 4      0.00000  -0.00000   0.00000   0.00005   0.00000  -0.00000
 649  O 4   f 5      0.00000   0.00000   0.00000  -0.00007  -0.00000   0.00000
 650  O 4   f 6     -0.00000   0.00000  -0.00000  -0.00003  -0.00000  -0.00000
 651  O 4   f 7     -0.00000   0.00000  -0.00000   0.00000  -0.00000  -0.00000
 652  O 4   f 1     -0.00000  -0.00000   0.00000  -0.00112  -0.00000   0.00005
 653  O 4   f 2     -0.00000  -0.00000   0.00001  -0.00058  -0.00001   0.00003
 654  O 4   f 3     -0.00000  -0.00001   0.00001   0.00022  -0.00000  -0.00001
 655  O 4   f 4     -0.00000   0.00000   0.00000  -0.00041  -0.00001   0.00003
 656  O 4   f 5     -0.00000  -0.00000  -0.00000   0.00055   0.00000  -0.00004
 657  O 4   f 6      0.00000  -0.00001   0.00000   0.00024   0.00000  -0.00001
 658  O 4   f 7     -0.00000  -0.00000   0.00000  -0.00001   0.00000   0.00001
 659  O 4   f 1     -0.00000   0.00000   0.00001   0.00045   0.00002  -0.00011
 660  O 4   f 2     -0.00001  -0.00005   0.00002   0.00023   0.00001   0.00003
 661  O 4   f 3      0.00000   0.00001  -0.00001  -0.00011  -0.00001  -0.00000
 662  O 4   f 4      0.00000   0.00003  -0.00000   0.00024   0.00003   0.00001
 663  O 4   f 5      0.00000   0.00001  -0.00001  -0.00024   0.00000  -0.00005
 664  O 4   f 6      0.00001  -0.00001  -0.00001  -0.00003   0.00005   0.00003
 665  O 4   f 7      0.00000  -0.00005   0.00002  -0.00003   0.00004  -0.00012
 666  O 4   g 1     -0.00000  -0.00000   0.00000   0.00003   0.00000  -0.00000
 667  O 4   g 2     -0.00000  -0.00000   0.00000  -0.00008  -0.00000   0.00000
 668  O 4   g 3     -0.00000  -0.00000   0.00000  -0.00010  -0.00000   0.00000
 669  O 4   g 4      0.00000   0.00000  -0.00000   0.00004   0.00000  -0.00000
 670  O 4   g 5     -0.00000  -0.00000   0.00000   0.00001  -0.00000   0.00000
 671  O 4   g 6     -0.00000   0.00000   0.00000  -0.00003  -0.00000   0.00000
 672  O 4   g 7     -0.00000  -0.00000   0.00000  -0.00001  -0.00000  -0.00000
 673  O 4   g 8     -0.00000   0.00000  -0.00000  -0.00002  -0.00000   0.00000
 674  O 4   g 9     -0.00000  -0.00000   0.00000  -0.00010  -0.00000   0.00001
 675  O 4   g 1     -0.00000   0.00001  -0.00000   0.00001  -0.00001   0.00002
 676  O 4   g 2     -0.00000   0.00001  -0.00000  -0.00001  -0.00000   0.00000
 677  O 4   g 3     -0.00000   0.00000  -0.00000   0.00000   0.00000   0.00003
 678  O 4   g 4     -0.00000  -0.00001   0.00000  -0.00002  -0.00001  -0.00000
 679  O 4   g 5      0.00000   0.00000  -0.00000   0.00001  -0.00000  -0.00001
 680  O 4   g 6     -0.00000  -0.00001   0.00000  -0.00005  -0.00000   0.00000
 681  O 4   g 7      0.00000   0.00000  -0.00000  -0.00001   0.00000   0.00001
 682  O 4   g 8      0.00000  -0.00001   0.00000   0.00005   0.00001  -0.00001
 683  O 4   g 9      0.00000  -0.00000  -0.00000   0.00006   0.00001  -0.00002
 684  O 4   h 1     -0.00000   0.00000   0.00000  -0.00003  -0.00000   0.00000
 685  O 4   h 2     -0.00000  -0.00000   0.00000  -0.00004  -0.00000   0.00000
 686  O 4   h 3     -0.00000  -0.00000  -0.00000   0.00001  -0.00000  -0.00000
 687  O 4   h 4      0.00000   0.00000  -0.00000   0.00002  -0.00000   0.00000
 688  O 4   h 5     -0.00000   0.00000   0.00000   0.00000  -0.00000   0.00000
 689  O 4   h 6     -0.00000  -0.00000   0.00000   0.00001  -0.00000   0.00000
 690  O 4   h 7     -0.00000   0.00000   0.00000  -0.00006  -0.00000   0.00001
 691  O 4   h 8      0.00000   0.00000  -0.00000  -0.00001  -0.00000  -0.00000
 692  O 4   h 9      0.00000   0.00000  -0.00000  -0.00000   0.00000   0.00000
 693  O 4   h10      0.00000   0.00000  -0.00000  -0.00003   0.00000   0.00000
 694  O 4   h11     -0.00000   0.00000   0.00000   0.00002  -0.00000   0.00000
 695  H 7   s       -0.00000  -0.00000   0.00000   0.00018   0.00003  -0.00053
 696  H 7   s        0.00002   0.00002  -0.00006   0.00165   0.00016  -0.00130
 697  H 7   s       -0.00016  -0.00011   0.00035  -0.00895  -0.00022  -0.00114
 698  H 7   s       -0.00008   0.00009  -0.00002  -0.00116   0.00003   0.00059
 699  H 7   s        0.00003  -0.00008   0.00003  -0.00019   0.00026   0.00017
 700  H 7   px      -0.00000   0.00000   0.00000  -0.00014  -0.00000   0.00003
 701  H 7   py       0.00000   0.00000  -0.00000   0.00010   0.00000  -0.00002
 702  H 7   pz      -0.00000   0.00000   0.00001  -0.00010  -0.00000   0.00002
 703  H 7   px      -0.00000  -0.00001   0.00001   0.00001  -0.00001   0.00013
 704  H 7   py      -0.00000  -0.00000   0.00000   0.00004   0.00000  -0.00006
 705  H 7   pz       0.00000  -0.00001  -0.00001  -0.00002  -0.00000   0.00007
 706  H 7   px       0.00005   0.00008  -0.00012   0.00506   0.00007  -0.00005
 707  H 7   py      -0.00005   0.00002   0.00007  -0.00404  -0.00014   0.00004
 708  H 7   pz       0.00004   0.00004  -0.00005   0.00384   0.00004   0.00011
 709  H 7   px       0.00003  -0.00000   0.00002   0.00141  -0.00006  -0.00036
 710  H 7   py      -0.00006  -0.00002   0.00010  -0.00116  -0.00041   0.00042
 711  H 7   pz       0.00005   0.00002  -0.00013   0.00109   0.00014  -0.00023
 712  H 7   d 1     -0.00000   0.00000   0.00000  -0.00015  -0.00000   0.00001
 713  H 7   d 2     -0.00000   0.00000   0.00000  -0.00012  -0.00001   0.00001
 714  H 7   d 3     -0.00000  -0.00000  -0.00000  -0.00003  -0.00000   0.00001
 715  H 7   d 4      0.00000   0.00000   0.00000   0.00014   0.00000  -0.00001
 716  H 7   d 5      0.00000  -0.00000  -0.00000   0.00003  -0.00000  -0.00000
 717  H 7   d 1      0.00001  -0.00001  -0.00002   0.00156   0.00002  -0.00001
 718  H 7   d 2      0.00001  -0.00000  -0.00002   0.00122   0.00004  -0.00002
 719  H 7   d 3      0.00000   0.00001   0.00000   0.00029   0.00002  -0.00002
 720  H 7   d 4     -0.00001  -0.00001   0.00001  -0.00152  -0.00001  -0.00003
 721  H 7   d 5     -0.00000  -0.00001   0.00001  -0.00036   0.00002  -0.00002
 722  H 7   d 1      0.00003   0.00003  -0.00005   0.00188   0.00017  -0.00014
 723  H 7   d 2      0.00002  -0.00001  -0.00002   0.00135   0.00006   0.00002
 724  H 7   d 3      0.00000  -0.00001   0.00000   0.00031  -0.00001  -0.00006
 725  H 7   d 4     -0.00002  -0.00003   0.00006  -0.00176  -0.00003   0.00011
 726  H 7   d 5      0.00001  -0.00005  -0.00002  -0.00047   0.00007   0.00010
 727  H 7   f 1     -0.00000  -0.00000   0.00000  -0.00013  -0.00000  -0.00000
 728  H 7   f 2     -0.00000   0.00000   0.00000  -0.00021  -0.00000   0.00000
 729  H 7   f 3     -0.00000  -0.00000  -0.00000  -0.00003  -0.00000   0.00000
 730  H 7   f 4     -0.00000  -0.00000   0.00000  -0.00013  -0.00000  -0.00000
 731  H 7   f 5      0.00000  -0.00000   0.00000   0.00004  -0.00000   0.00000
 732  H 7   f 6      0.00000   0.00000  -0.00000   0.00005   0.00000   0.00000
 733  H 7   f 7     -0.00000  -0.00000  -0.00000  -0.00006  -0.00000   0.00000
 734  H 7   f 1     -0.00000  -0.00001   0.00001  -0.00068  -0.00002   0.00001
 735  H 7   f 2     -0.00001  -0.00000   0.00002  -0.00105  -0.00003   0.00000
 736  H 7   f 3     -0.00000   0.00001   0.00000  -0.00014   0.00000  -0.00001
 737  H 7   f 4     -0.00000  -0.00000   0.00001  -0.00067  -0.00002   0.00003
 738  H 7   f 5      0.00000   0.00001  -0.00001   0.00019   0.00000   0.00001
 739  H 7   f 6     -0.00000   0.00002  -0.00001   0.00025  -0.00002  -0.00001
 740  H 7   f 7     -0.00001   0.00001   0.00001  -0.00028  -0.00003   0.00000
 741  H 7   g 1     -0.00000   0.00000  -0.00000   0.00004  -0.00000  -0.00000
 742  H 7   g 2      0.00000   0.00000  -0.00000   0.00013   0.00000   0.00000
 743  H 7   g 3      0.00000   0.00000  -0.00000   0.00007   0.00000   0.00000
 744  H 7   g 4     -0.00000  -0.00000   0.00000  -0.00006  -0.00000   0.00000
 745  H 7   g 5      0.00000   0.00000  -0.00000   0.00007   0.00000  -0.00000
 746  H 7   g 6      0.00000   0.00000  -0.00000   0.00007   0.00000  -0.00000
 747  H 7   g 7     -0.00000  -0.00000   0.00000  -0.00002   0.00000  -0.00000
 748  H 7   g 8      0.00000  -0.00000  -0.00000   0.00007   0.00000  -0.00000
 749  H 7   g 9      0.00000  -0.00000  -0.00000   0.00007   0.00000  -0.00000
 750  H 8   s       -0.00000   0.00000   0.00000   0.00016   0.00005  -0.00068
 751  H 8   s       -0.00000   0.00001  -0.00000   0.00170   0.00009  -0.00149
 752  H 8   s        0.00005   0.00002  -0.00000  -0.00843   0.00059  -0.00257
 753  H 8   s       -0.00002   0.00023   0.00002  -0.00101  -0.00015  -0.00052
 754  H 8   s        0.00001   0.00005  -0.00005  -0.00010  -0.00005  -0.00104
 755  H 8   px      -0.00000  -0.00000  -0.00000   0.00016   0.00000  -0.00003
 756  H 8   py      -0.00000  -0.00001   0.00000   0.00010  -0.00000  -0.00001
 757  H 8   pz       0.00000  -0.00000   0.00000  -0.00000   0.00000  -0.00000
 758  H 8   px       0.00000   0.00001   0.00000   0.00005   0.00001  -0.00015
 759  H 8   py       0.00000   0.00003  -0.00001   0.00009   0.00001  -0.00003
 760  H 8   pz      -0.00000  -0.00000   0.00000  -0.00003  -0.00001  -0.00000
 761  H 8   px       0.00002  -0.00000  -0.00002  -0.00582   0.00015  -0.00022
 762  H 8   py       0.00000  -0.00010   0.00004  -0.00421   0.00005  -0.00026
 763  H 8   pz       0.00002   0.00007  -0.00003   0.00036   0.00005  -0.00005
 764  H 8   px       0.00002   0.00011   0.00002  -0.00160  -0.00015   0.00056
 765  H 8   py       0.00002   0.00003   0.00000  -0.00119   0.00007   0.00020
 766  H 8   pz       0.00002   0.00014  -0.00004   0.00013  -0.00002  -0.00006
[...]
 195  H 2   g 3     -0.00017
 196  H 2   g 4     -0.00008
 197  H 2   g 5      0.00011
 198  H 2   g 6      0.00016
 199  H 2   g 7     -0.00016
 200  H 2   g 8     -0.00021
 201  H 2   g 9     -0.00007
 202  O 2   s       -0.00022
 203  O 2   s        0.00516
 204  O 2   s        0.00121
 205  O 2   s        0.00247
 206  O 2   s       -0.12535
 207  O 2   s        0.33904
 208  O 2   px      -0.01923
 209  O 2   py      -0.01718
 210  O 2   pz      -0.00316
 211  O 2   px      -0.02919
 212  O 2   py      -0.02554
 213  O 2   pz      -0.00491
 214  O 2   px      -0.07945
 215  O 2   py      -0.04047
 216  O 2   pz      -0.01734
 217  O 2   px      -0.18751
 218  O 2   py      -0.11253
 219  O 2   pz       0.00317
 220  O 2   px      -0.65834
 221  O 2   py      -0.05198
 222  O 2   pz      -0.07346
 223  O 2   d 1     -0.00028
 224  O 2   d 2      0.00000
 225  O 2   d 3     -0.00013
 226  O 2   d 4      0.00009
 227  O 2   d 5      0.00016
 228  O 2   d 1     -0.00145
 229  O 2   d 2      0.00068
 230  O 2   d 3      0.00111
 231  O 2   d 4      0.00053
 232  O 2   d 5     -0.00099
 233  O 2   d 1      0.01070
 234  O 2   d 2      0.00031
 235  O 2   d 3     -0.00080
 236  O 2   d 4     -0.00665
 237  O 2   d 5     -0.00421
 238  O 2   d 1      0.04046
 239  O 2   d 2     -0.00573
 240  O 2   d 3     -0.03002
 241  O 2   d 4     -0.00762
 242  O 2   d 5     -0.02632
 243  O 2   f 1     -0.00015
 244  O 2   f 2     -0.00007
 245  O 2   f 3      0.00013
 246  O 2   f 4     -0.00004
 247  O 2   f 5      0.00002
 248  O 2   f 6     -0.00018
 249  O 2   f 7     -0.00010
 250  O 2   f 1      0.00129
 251  O 2   f 2      0.00076
 252  O 2   f 3     -0.00060
 253  O 2   f 4      0.00065
 254  O 2   f 5      0.00061
 255  O 2   f 6      0.00033
 256  O 2   f 7      0.00011
 257  O 2   f 1     -0.01002
 258  O 2   f 2      0.00519
 259  O 2   f 3      0.01043
 260  O 2   f 4     -0.00600
 261  O 2   f 5      0.00073
 262  O 2   f 6     -0.00444
 263  O 2   f 7      0.01354
 264  O 2   g 1      0.00026
 265  O 2   g 2      0.00015
 266  O 2   g 3      0.00001
 267  O 2   g 4     -0.00009
 268  O 2   g 5     -0.00001
 269  O 2   g 6      0.00009
 270  O 2   g 7      0.00010
 271  O 2   g 8     -0.00007
 272  O 2   g 9      0.00000
 273  O 2   g 1     -0.00199
 274  O 2   g 2     -0.00096
 275  O 2   g 3     -0.00057
 276  O 2   g 4      0.00087
 277  O 2   g 5      0.00078
 278  O 2   g 6      0.00010
 279  O 2   g 7     -0.00049
 280  O 2   g 8      0.00087
 281  O 2   g 9     -0.00130
 282  O 2   h 1      0.00009
 283  O 2   h 2     -0.00011
 284  O 2   h 3      0.00015
 285  O 2   h 4     -0.00008
 286  O 2   h 5     -0.00014
 287  O 2   h 6      0.00017
 288  O 2   h 7      0.00006
 289  O 2   h 8     -0.00002
 290  O 2   h 9     -0.00015
 291  O 2   h10     -0.00005
 292  O 2   h11      0.00003
 293  H 3   s       -0.00625
 294  H 3   s       -0.01083
 295  H 3   s       -0.18033
 296  H 3   s       -0.54705
 297  H 3   s       -0.77514
 298  H 3   px       0.00081
 299  H 3   py       0.00109
 300  H 3   pz      -0.00039
 301  H 3   px       0.00071
 302  H 3   py      -0.00108
 303  H 3   pz       0.00046
 304  H 3   px      -0.03304
 305  H 3   py      -0.00443
 306  H 3   pz      -0.00475
 307  H 3   px      -0.08735
 308  H 3   py      -0.08013
 309  H 3   pz       0.01052
 310  H 3   d 1      0.00009
 311  H 3   d 2     -0.00001
 312  H 3   d 3     -0.00001
 313  H 3   d 4      0.00004
 314  H 3   d 5      0.00035
 315  H 3   d 1     -0.00363
 316  H 3   d 2     -0.00012
 317  H 3   d 3      0.00197
 318  H 3   d 4     -0.00017
 319  H 3   d 5     -0.00339
 320  H 3   d 1     -0.00435
 321  H 3   d 2     -0.00251
 322  H 3   d 3      0.00629
 323  H 3   d 4     -0.00224
 324  H 3   d 5     -0.01201
 325  H 3   f 1     -0.00052
 326  H 3   f 2     -0.00003
 327  H 3   f 3      0.00023
 328  H 3   f 4     -0.00017
 329  H 3   f 5      0.00032
 330  H 3   f 6     -0.00006
 331  H 3   f 7      0.00017
 332  H 3   f 1     -0.00114
 333  H 3   f 2     -0.00078
 334  H 3   f 3     -0.00044
 335  H 3   f 4      0.00136
 336  H 3   f 5      0.00069
 337  H 3   f 6      0.00048
 338  H 3   f 7     -0.00242
 339  H 3   g 1     -0.00023
 340  H 3   g 2     -0.00005
 341  H 3   g 3      0.00008
 342  H 3   g 4      0.00006
 343  H 3   g 5     -0.00008
 344  H 3   g 6      0.00002
 345  H 3   g 7      0.00008
 346  H 3   g 8      0.00008
 347  H 3   g 9     -0.00001
 348  H 4   s        0.00317
 349  H 4   s       -0.00413
 350  H 4   s        0.03856
 351  H 4   s        0.57561
 352  H 4   s        0.50575
 353  H 4   px      -0.00025
 354  H 4   py      -0.00014
 355  H 4   pz      -0.00009
 356  H 4   px       0.00588
 357  H 4   py      -0.00318
 358  H 4   pz       0.00210
 359  H 4   px      -0.03351
 360  H 4   py       0.00780
 361  H 4   pz      -0.00398
 362  H 4   px      -0.12080
 363  H 4   py       0.09176
 364  H 4   pz      -0.04800
 365  H 4   d 1      0.00039
 366  H 4   d 2      0.00009
 367  H 4   d 3      0.00047
 368  H 4   d 4     -0.00001
 369  H 4   d 5     -0.00050
 370  H 4   d 1     -0.00126
 371  H 4   d 2      0.00037
 372  H 4   d 3     -0.00266
 373  H 4   d 4     -0.00007
 374  H 4   d 5      0.00369
 375  H 4   d 1     -0.03136
 376  H 4   d 2     -0.00730
 377  H 4   d 3     -0.01483
 378  H 4   d 4      0.01832
 379  H 4   d 5      0.02129
 380  H 4   f 1     -0.00036
 381  H 4   f 2     -0.00024
 382  H 4   f 3      0.00002
 383  H 4   f 4     -0.00011
 384  H 4   f 5     -0.00001
 385  H 4   f 6      0.00009
 386  H 4   f 7     -0.00007
 387  H 4   f 1      0.00715
 388  H 4   f 2      0.00305
 389  H 4   f 3     -0.00187
 390  H 4   f 4      0.00312
 391  H 4   f 5      0.00328
 392  H 4   f 6     -0.00280
 393  H 4   f 7     -0.00203
 394  H 4   g 1     -0.00037
 395  H 4   g 2     -0.00020
 396  H 4   g 3      0.00018
 397  H 4   g 4      0.00015
 398  H 4   g 5      0.00008
 399  H 4   g 6     -0.00029
 400  H 4   g 7     -0.00008
 401  H 4   g 8      0.00011
 402  H 4   g 9      0.00000
 403  O 3   s        0.00215
 404  O 3   s       -0.03997
 405  O 3   s        0.00047
 406  O 3   s       -0.02430
 407  O 3   s       -0.18282
 408  O 3   s       -0.69762
 409  O 3   px       0.02746
 410  O 3   py      -0.00183
 411  O 3   pz      -0.00339
 412  O 3   px       0.04114
 413  O 3   py      -0.00220
 414  O 3   pz      -0.00901
 415  O 3   px       0.09215
 416  O 3   py      -0.01485
 417  O 3   pz       0.00215
 418  O 3   px       0.18027
 419  O 3   py       0.11734
 420  O 3   pz       0.11934
 421  O 3   px       0.09721
 422  O 3   py      -0.15672
 423  O 3   pz      -0.01335
 424  O 3   d 1     -0.00008
 425  O 3   d 2     -0.00044
 426  O 3   d 3      0.00017
 427  O 3   d 4     -0.00032
 428  O 3   d 5      0.00012
 429  O 3   d 1     -0.00096
 430  O 3   d 2      0.00287
 431  O 3   d 3     -0.00167
 432  O 3   d 4      0.00207
 433  O 3   d 5     -0.00089
 434  O 3   d 1      0.00881
 435  O 3   d 2     -0.01149
 436  O 3   d 3      0.01264
 437  O 3   d 4     -0.01497
 438  O 3   d 5     -0.00338
 439  O 3   d 1      0.02403
 440  O 3   d 2     -0.01659
 441  O 3   d 3      0.01448
 442  O 3   d 4     -0.01795
 443  O 3   d 5     -0.00428
 444  O 3   f 1      0.00036
 445  O 3   f 2      0.00008
 446  O 3   f 3      0.00010
 447  O 3   f 4      0.00031
 448  O 3   f 5      0.00009
 449  O 3   f 6      0.00018
 450  O 3   f 7     -0.00018
 451  O 3   f 1     -0.00338
 452  O 3   f 2     -0.00063
 453  O 3   f 3     -0.00008
 454  O 3   f 4     -0.00228
 455  O 3   f 5     -0.00129
 456  O 3   f 6     -0.00057
 457  O 3   f 7      0.00098
 458  O 3   f 1     -0.02079
 459  O 3   f 2     -0.00887
 460  O 3   f 3      0.00246
 461  O 3   f 4     -0.01545
 462  O 3   f 5     -0.00583
 463  O 3   f 6     -0.00490
 464  O 3   f 7      0.00987
 465  O 3   g 1      0.00010
 466  O 3   g 2     -0.00006
 467  O 3   g 3     -0.00020
 468  O 3   g 4     -0.00012
 469  O 3   g 5     -0.00009
 470  O 3   g 6      0.00003
 471  O 3   g 7     -0.00002
 472  O 3   g 8      0.00011
 473  O 3   g 9      0.00026
 474  O 3   g 1      0.00305
 475  O 3   g 2      0.00416
 476  O 3   g 3      0.00056
 477  O 3   g 4      0.00113
 478  O 3   g 5      0.00081
 479  O 3   g 6      0.00196
 480  O 3   g 7      0.00186
 481  O 3   g 8     -0.00074
 482  O 3   g 9     -0.00299
 483  O 3   h 1     -0.00033
 484  O 3   h 2     -0.00042
 485  O 3   h 3     -0.00016
 486  O 3   h 4      0.00012
 487  O 3   h 5     -0.00020
 488  O 3   h 6      0.00027
 489  O 3   h 7     -0.00000
 490  O 3   h 8     -0.00008
 491  O 3   h 9     -0.00015
 492  O 3   h10      0.00030
 493  O 3   h11      0.00006
 494  H 5   s        0.00462
 495  H 5   s       -0.00209
 496  H 5   s        0.26139
 497  H 5   s       -0.00428
 498  H 5   s        1.02752
 499  H 5   px      -0.00250
 500  H 5   py       0.00126
 501  H 5   pz      -0.00055
 502  H 5   px       0.00505
 503  H 5   py      -0.00081
 504  H 5   pz       0.00137
 505  H 5   px       0.02549
 506  H 5   py      -0.04031
 507  H 5   pz      -0.00352
 508  H 5   px       0.03277
 509  H 5   py      -0.03970
 510  H 5   pz      -0.00783
 511  H 5   d 1      0.00076
 512  H 5   d 2      0.00040
 513  H 5   d 3      0.00033
 514  H 5   d 4     -0.00011
 515  H 5   d 5      0.00017
 516  H 5   d 1     -0.01125
 517  H 5   d 2     -0.00280
 518  H 5   d 3     -0.00593
 519  H 5   d 4      0.00115
 520  H 5   d 5      0.00077
 521  H 5   d 1     -0.01408
 522  H 5   d 2      0.00534
 523  H 5   d 3     -0.00784
 524  H 5   d 4     -0.01247
 525  H 5   d 5     -0.00970
 526  H 5   f 1     -0.00086
 527  H 5   f 2     -0.00025
 528  H 5   f 3      0.00041
 529  H 5   f 4     -0.00034
 530  H 5   f 5     -0.00052
 531  H 5   f 6      0.00027
 532  H 5   f 7     -0.00044
 533  H 5   f 1     -0.00216
 534  H 5   f 2      0.00001
 535  H 5   f 3      0.00181
 536  H 5   f 4      0.00176
 537  H 5   f 5     -0.00194
 538  H 5   f 6     -0.00351
 539  H 5   f 7     -0.00397
 540  H 5   g 1     -0.00004
 541  H 5   g 2      0.00008
 542  H 5   g 3      0.00031
 543  H 5   g 4      0.00007
 544  H 5   g 5      0.00021
 545  H 5   g 6      0.00006
 546  H 5   g 7     -0.00004
 547  H 5   g 8     -0.00023
 548  H 5   g 9     -0.00051
 549  H 6   s        0.00284
 550  H 6   s       -0.00062
 551  H 6   s        0.20779
 552  H 6   s        0.00152
 553  H 6   s       -0.02906
 554  H 6   px      -0.00024
 555  H 6   py      -0.00133
 556  H 6   pz      -0.00050
 557  H 6   px       0.00088
 558  H 6   py       0.00457
 559  H 6   pz       0.00109
 560  H 6   px       0.01678
 561  H 6   py       0.02389
 562  H 6   pz       0.02835
 563  H 6   px       0.04677
 564  H 6   py       0.09084
 565  H 6   pz       0.05496
 566  H 6   d 1     -0.00013
 567  H 6   d 2     -0.00080
 568  H 6   d 3     -0.00017
 569  H 6   d 4     -0.00001
 570  H 6   d 5      0.00038
 571  H 6   d 1      0.00385
 572  H 6   d 2      0.00967
 573  H 6   d 3      0.00063
 574  H 6   d 4      0.00273
 575  H 6   d 5     -0.00505
 576  H 6   d 1      0.01146
 577  H 6   d 2     -0.00917
 578  H 6   d 3      0.00109
 579  H 6   d 4      0.01141
 580  H 6   d 5      0.01530
 581  H 6   f 1     -0.00035
 582  H 6   f 2      0.00040
 583  H 6   f 3      0.00027
 584  H 6   f 4     -0.00026
 585  H 6   f 5      0.00015
 586  H 6   f 6     -0.00064
 587  H 6   f 7     -0.00030
 588  H 6   f 1      0.00257
 589  H 6   f 2      0.00235
 590  H 6   f 3      0.00169
 591  H 6   f 4     -0.00008
 592  H 6   f 5      0.00031
 593  H 6   f 6      0.00086
 594  H 6   f 7     -0.00197
 595  H 6   g 1     -0.00016
 596  H 6   g 2      0.00008
 597  H 6   g 3      0.00010
 598  H 6   g 4      0.00011
 599  H 6   g 5     -0.00009
 600  H 6   g 6     -0.00000
 601  H 6   g 7     -0.00016
 602  H 6   g 8     -0.00029
 603  H 6   g 9     -0.00017
 604  O 4   s       -0.00228
 605  O 4   s        0.06705
 606  O 4   s        0.00287
 607  O 4   s        0.03346
 608  O 4   s        0.26886
 609  O 4   s        1.28370
 610  O 4   px       0.01553
 611  O 4   py      -0.02025
 612  O 4   pz       0.00923
 613  O 4   px       0.02294
 614  O 4   py      -0.02617
 615  O 4   pz       0.00896
 616  O 4   px       0.05921
 617  O 4   py      -0.06876
 618  O 4   pz       0.04337
 619  O 4   px       0.09279
 620  O 4   py      -0.32282
 621  O 4   pz       0.18230
 622  O 4   px       0.21345
 623  O 4   py      -0.15604
 624  O 4   pz       0.17322
 625  O 4   d 1      0.00016
 626  O 4   d 2     -0.00035
 627  O 4   d 3     -0.00037
 628  O 4   d 4      0.00028
 629  O 4   d 5      0.00004
 630  O 4   d 1     -0.00020
 631  O 4   d 2      0.00236
 632  O 4   d 3      0.00308
 633  O 4   d 4     -0.00345
 634  O 4   d 5     -0.00254
 635  O 4   d 1     -0.00932
 636  O 4   d 2     -0.02027
 637  O 4   d 3     -0.01295
 638  O 4   d 4      0.02327
 639  O 4   d 5      0.00783
 640  O 4   d 1     -0.03178
 641  O 4   d 2     -0.07474
 642  O 4   d 3     -0.03621
 643  O 4   d 4      0.07794
 644  O 4   d 5      0.02735
 645  O 4   f 1      0.00028
 646  O 4   f 2      0.00032
 647  O 4   f 3     -0.00001
 648  O 4   f 4      0.00000
 649  O 4   f 5     -0.00012
 650  O 4   f 6     -0.00008
 651  O 4   f 7      0.00024
 652  O 4   f 1     -0.00208
 653  O 4   f 2     -0.00283
 654  O 4   f 3     -0.00010
 655  O 4   f 4     -0.00093
 656  O 4   f 5      0.00068
 657  O 4   f 6      0.00069
 658  O 4   f 7     -0.00119
 659  O 4   f 1     -0.03232
 660  O 4   f 2     -0.03039
 661  O 4   f 3      0.00068
 662  O 4   f 4     -0.01643
 663  O 4   f 5      0.01945
 664  O 4   f 6     -0.00116
 665  O 4   f 7     -0.01053
 666  O 4   g 1     -0.00024
 667  O 4   g 2     -0.00013
 668  O 4   g 3      0.00018
 669  O 4   g 4     -0.00003
 670  O 4   g 5     -0.00002
 671  O 4   g 6      0.00002
 672  O 4   g 7      0.00015
 673  O 4   g 8      0.00011
 674  O 4   g 9      0.00007
 675  O 4   g 1      0.00208
 676  O 4   g 2     -0.00232
 677  O 4   g 3     -0.00420
 678  O 4   g 4      0.00139
 679  O 4   g 5     -0.00074
 680  O 4   g 6     -0.00178
 681  O 4   g 7     -0.00103
 682  O 4   g 8     -0.00278
 683  O 4   g 9     -0.00370
 684  O 4   h 1     -0.00000
 685  O 4   h 2     -0.00013
 686  O 4   h 3     -0.00007
 687  O 4   h 4      0.00019
 688  O 4   h 5      0.00019
 689  O 4   h 6     -0.00003
 690  O 4   h 7     -0.00047
 691  O 4   h 8      0.00005
 692  O 4   h 9     -0.00024
 693  O 4   h10     -0.00046
 694  O 4   h11      0.00003
 695  H 7   s       -0.00835
 696  H 7   s        0.00290
 697  H 7   s       -0.49341
 698  H 7   s       -0.35280
 699  H 7   s       -1.13619
 700  H 7   px      -0.00211
 701  H 7   py       0.00189
 702  H 7   pz      -0.00170
 703  H 7   px       0.00039
 704  H 7   py      -0.00447
 705  H 7   pz       0.00291
 706  H 7   px       0.08970
 707  H 7   py      -0.03709
 708  H 7   pz       0.04669
 709  H 7   px       0.12387
 710  H 7   py      -0.08861
 711  H 7   pz       0.08334
 712  H 7   d 1     -0.00049
 713  H 7   d 2     -0.00013
 714  H 7   d 3     -0.00010
 715  H 7   d 4      0.00079
 716  H 7   d 5      0.00046
 717  H 7   d 1      0.01064
 718  H 7   d 2      0.00588
 719  H 7   d 3      0.00279
 720  H 7   d 4     -0.01243
 721  H 7   d 5     -0.00666
 722  H 7   d 1      0.00921
 723  H 7   d 2     -0.00040
 724  H 7   d 3      0.00978
 725  H 7   d 4     -0.01067
 726  H 7   d 5     -0.01934
 727  H 7   f 1     -0.00102
 728  H 7   f 2     -0.00151
 729  H 7   f 3     -0.00017
 730  H 7   f 4     -0.00112
 731  H 7   f 5      0.00016
 732  H 7   f 6      0.00070
 733  H 7   f 7     -0.00005
 734  H 7   f 1     -0.00220
 735  H 7   f 2      0.00080
 736  H 7   f 3      0.00095
 737  H 7   f 4      0.00012
 738  H 7   f 5     -0.00107
 739  H 7   f 6      0.00258
 740  H 7   f 7      0.00210
 741  H 7   g 1      0.00031
 742  H 7   g 2      0.00034
 743  H 7   g 3     -0.00000
 744  H 7   g 4     -0.00010
 745  H 7   g 5      0.00007
 746  H 7   g 6      0.00028
 747  H 7   g 7     -0.00006
 748  H 7   g 8     -0.00016
 749  H 7   g 9     -0.00002
 750  H 8   s       -0.00561
 751  H 8   s       -0.01078
 752  H 8   s       -0.23344
 753  H 8   s       -0.13651
 754  H 8   s       -0.05108
 755  H 8   px       0.00091
 756  H 8   py       0.00063
 757  H 8   pz      -0.00005
 758  H 8   px      -0.00085
 759  H 8   py      -0.00291
 760  H 8   pz       0.00109
 761  H 8   px      -0.04044
 762  H 8   py      -0.03443
 763  H 8   pz       0.00795
 764  H 8   px      -0.03666
 765  H 8   py      -0.02300
 766  H 8   pz       0.00638
 767  H 8   d 1      0.00009
 768  H 8   d 2      0.00006
 769  H 8   d 3      0.00021
 770  H 8   d 4     -0.00035
 771  H 8   d 5     -0.00010
 772  H 8   d 1     -0.00666
 773  H 8   d 2      0.00050
 774  H 8   d 3      0.00254
 775  H 8   d 4      0.00289
 776  H 8   d 5     -0.00033
 777  H 8   d 1      0.00547
 778  H 8   d 2      0.00819
 779  H 8   d 3      0.00144
 780  H 8   d 4     -0.00255
 781  H 8   d 5      0.00362
 782  H 8   f 1     -0.00114
 783  H 8   f 2      0.00005
 784  H 8   f 3      0.00050
 785  H 8   f 4     -0.00012
 786  H 8   f 5      0.00070
 787  H 8   f 6      0.00018
 788  H 8   f 7      0.00027
 789  H 8   f 1      0.00435
 790  H 8   f 2      0.00195
 791  H 8   f 3     -0.00132
 792  H 8   f 4     -0.00031
 793  H 8   f 5     -0.00272
 794  H 8   f 6     -0.00038
 795  H 8   f 7      0.00068
 796  H 8   g 1      0.00015
 797  H 8   g 2      0.00019
 798  H 8   g 3     -0.00004
 799  H 8   g 4     -0.00002
 800  H 8   g 5      0.00002
 801  H 8   g 6     -0.00005
 802  H 8   g 7     -0.00010
 803  H 8   g 8     -0.00007
 804  H 8   g 9      0.00004

          Ground-State Mulliken Net Atomic Charges

     Atom                 Charge (a.u.)
  ----------------------------------------
      1 O                    -0.683007
      2 H                     0.280539
      3 H                     0.388055
      4 O                    -0.651649
      5 H                     0.339507
      6 H                     0.342418
      7 O                    -0.662776
      8 H                     0.295068
      9 H                     0.355023
     10 O                    -0.649932
     11 H                     0.308630
     12 H                     0.338121
  ----------------------------------------
  Sum of atomic charges =     0.000000

 -----------------------------------------------------------------
                    Cartesian Multipole Moments
 -----------------------------------------------------------------
    Charge (ESU x 10^10)
                -0.0000
    Dipole Moment (Debye)
         X      -0.5600      Y      -6.4341      Z       0.6063
       Tot       6.4868
    Quadrupole Moments (Debye-Ang)
        XX     -24.3030     XY      -2.5054     YY     -22.3643
        XZ      -0.8534     YZ       2.2608     ZZ     -35.1655
    Octopole Moments (Debye-Ang^2)
       XXX       6.8788    XXY      -5.7482    XYY      -2.2952
       YYY     -59.3176    XXZ      -2.2013    XYZ      -6.7356
       YYZ      21.5769    XZZ     -13.0951    YZZ     -19.0285
       ZZZ     -13.8180
    Hexadecapole Moments (Debye-Ang^3)
      XXXX     -93.7278   XXXY     -18.6614   XXYY     -61.9542
      XYYY     -18.8536   YYYY    -440.3912   XXXZ     -43.4504
      XXYZ      12.2512   XYYZ       1.7506   YYYZ      85.8214
      XXZZ     -73.3768   XYZZ     -11.9247   YYZZ    -147.4642
      XZZZ     -48.9771   YZZZ      86.9864   ZZZZ    -453.4996
 -----------------------------------------------------------------
 Total job time:  1677.57s(wall), 52537.23s(cpu) 
 Tue Dec 17 22:01:58 2024

        *************************************************************
        *                                                           *
        *  Thank you very much for using Q-Chem.  Have a nice day.  *
        *                                                           *
        *************************************************************


