                  Welcome to Q-Chem
     A Quantum Leap Into The Future Of Chemistry


 Q-Chem 6.2 (devel), Q-Chem, Inc., Pleasanton, CA (2024)

 E. Epifanovsky,  A. T. B. Gilbert,  Xintian Feng,  Joonho Lee,  Yuezhi Mao,  
 N. Mardirossian,  P. Pokhilko,  A. White,  M. Wormit,  M. P. Coons,  
 A. L. Dempwolff,  Zhengting Gan,  D. Hait,  P. R. Horn,  L. D. Jacobson,  
 I. Kaliman,  J. Kussmann,  A. W. Lange,  Ka Un Lao,  D. S. Levine,  Jie Liu,  
 S. C. McKenzie,  A. F. Morrison,  K. D. Nanda,  F. Plasser,  D. R. Rehn,  
 M. L. Vidal,  Zhi-Qiang You,  Ying Zhu,  Huseyin Aksu,  B. Alam,  
 B. Albrecht,  A. Aldossary,  E. Alguire,  J. H. Andersen,  
 J. E. Arias-Martinez,  V. Athavale,  D. Barton,  K. Begam,  A. Behn,  
 N. Bellonzi,  Y. A. Bernard,  E. J. Berquist,  H. Burton,  A. Carreras,  
 K. Carter-Fenk,  Mathew Chow,  Romit Chakraborty,  Chandrima Chakravarty,  
 Junhan Chen,  A. D. Chien,  K. D. Closser,  V. Cofer-Shabica,  L. Cunha,  
 S. Dasgupta,  Jia Deng,  Joseph Dickinson,  M. de Wergifosse,  
 M. Diedenhofen,  Hainam Do,  Wenjie Dou,  S. Ehlert,  Po-Tung Fang,  
 S. Fatehi,  Qingguo Feng,  Jonathan Fetherolf,  T. Friedhoff,  
 Thomas Froitzheim,  Sarai Folkestad,  B. Ganoe,  J. Gayvert,  Qinghui Ge,  
 G. Gidofalvi,  M. Gimferrer,  M. Goldey,  Montgomery Gray,  J. Gomes,  
 C. Gonzalez-Espinoza,  S. Gulania,  A. Gunina,  J. A. Gyamfi,  
 M. W. D. Hanson-Heine,  P. H. P. Harbach,  A. W. Hauser,  M. F. Herbst,  
 M. Hernandez Vera,  M. Hodecker,  Z. C. Holden,  S. Houck,  Xunkun Huang,  
 Kerwin Hui,  B. C. Huynh,  K. Ikeda,  M. Ivanov,  Nayanthara K. Jayadev,  
 Hyunjun Ji,  Zuxin Jin,  Hanjie Jiang,  Subrata Jana,  B. Kaduk,  
 S. Kaehler,  R. Kang,  K. Khistyaev,  Jaehoon Kim,  Yongbin Kim,  
 P. Klunzinger,  Z. Koczor-Benda,  Joong Hoon Koh,  D. Kosenkov,  
 Saikiran Kotaru,  L. Koulias,  T. Kowalczyk,  C. M. Krauter,  K. Kue,  
 A. Kunitsa,  T. Kus,  A. Landau,  K. V. Lawler,  D. Lefrancois,  S. Lehtola,  
 Rain Li,  Shaozhi Li,  Tao E. Li,  Yi-Pei Li,  Jiashu Liang,  M. Liebenthal,  
 Hung-Hsuan Lin,  You-Sheng Lin,  Fenglai Liu,  Kuan-Yu Liu,  Xiao Liu,  
 M. Loipersberger,  A. Luenser,  C. Malbon,  Aniket Mandal,  Manisha,  
 A. Manjanath,  P. Manohar,  E. Mansoor,  S. F. Manzer,  Shan-Ping Mao,  
 A. V. Marenich,  T. Markovich,  S. Mason,  F. Matz,  S. A. Maurer,  
 Samuel May,  Alexandra McIsaac,  P. F. McLaughlin,  M. F. S. J. Menger,  
 J.-M. Mewes,  S. A. Mewes,  P. Morgante,  Mohammad Mostafanejad,  
 Madhubani Mukherjee,  J. W. Mullinax,  Quyen Nguyen,  Avik Kumar Ojha,  
 K. J. Oosterbaan,  Eno Paenurk,  Xiaoliang Pan,  G. Paran,  V. Parravicini,  
 Alexander C. Paul,  Suranjan K. Paul,  F. Pavosevic,  Zheng Pei,  S. Prager,  
 E. I. Proynov,  E. Ramos,  B. Rana,  A. E. Rask,  A. Rettig,  R. M. Richard,  
 F. Rob,  E. Rossomme,  T. Scheele,  M. Scheurer,  M. Schneider,  
 P. E. Schneider,  Tim K. Schramm,  N. Sergueev,  S. M. Sharada,  
 Hengyuan Shen,  W. Skomorowski,  D. W. Small,  C. J. Stein,  
 Alistair J. Sterling,  Yingli Su,  Yu-Chuan Su,  E. J. Sundstrom,  
 J. Talbot,  Zhen Tao,  J. Thirman,  Hung-Yi Tsai,  T. Tsuchimochi,  
 N. M. Tubman,  C. Utku,  S. P. Veccham,  O. Vydrov,  Rahel Weiss,  
 J. Wenzel,  Jonathan Wong,  J. Witte,  H. Wu,  Yanze Wu,  A. Yamada,  
 Chou-Hsun Yang,  Kun Yao,  S. Yeganeh,  S. R. Yost,  Qi Yu,  A. Zech,  
 F. Zeller,  Chongxiao Zhao,  Igor Ying Zhang,  Xing Zhang,  Yu Zhang,  
 D. Zuev,  A. Aspuru-Guzik,  A. T. Bell,  N. A. Besley,  K. B. Bravaya,  
 B. R. Brooks,  D. Casanova,  Jeng-Da Chai,  Hsing-Ta Chen,  S. Coriani,  
 C. J. Cramer,  A. E. DePrince, III,  R. A. DiStasio Jr.,  A. Dreuw,  
 B. D. Dunietz,  T. R. Furlani,  W. A. Goddard III,  S. Grimme,  
 S. Hammes-Schiffer,  T. Head-Gordon,  W. J. Hehre,  Chao-Ping Hsu,  
 T.-C. Jagau,  Yousung Jung,  A. Klamt,  Jing Kong,  D. S. Lambrecht,  
 Xiangyuan Li,  WanZhen Liang,  N. J. Mayhall,  C. W. McCurdy,  J. B. Neaton,  
 T. Neudecker,  C. Ochsenfeld,  J. A. Parkhill,  R. Peverati,  
 V. A. Rassolov,  Haisheng Ren,  Yihan Shao,  L. V. Slipchenko,  
 R. P. Steele,  J. E. Subotnik,  A. J. W. Thom,  A. Tkatchenko,  
 D. G. Truhlar,  T. Van Voorhis,  Fan Wang,  T. A. Wesolowski,  K. B. Whaley,  
 H. L. Woodcock III,  P. M. Zimmerman,  S. Faraji,  P. M. W. Gill,  
 M. Head-Gordon,  J. M. Herbert,  A. I. Krylov

 Contributors to earlier versions of Q-Chem not listed above: 
 R. D. Adamson,  B. Austin,  R. Baer,  J. Baker,  G. J. O. Beran,  
 K. Brandhorst,  S. T. Brown,  E. F. C. Byrd,  Arup K. Chakraborty,  
 G. K. L. Chan,  Chun-Min Chang,  Yunqing Chen,  C.-L. Cheng,  
 Siu Hung Chien,  D. M. Chipman,  D. L. Crittenden,  H. Dachsel,  
 R. J. Doerksen,  A. D. Dutoi,  R. G. Edgar,  J. Fosso-Tande,  
 L. Fusti-Molnar,  D. Ghosh,  A. Ghysels,  A. Golubeva-Zadorozhnaya,  
 J. Gonthier,  M. S. Gordon,  S. R. Gwaltney,  G. Hawkins,  J. E. Herr,  
 A. Heyden,  S. Hirata,  E. G. Hohenstein,  G. Kedziora,  F. J. Keil,  
 C. Kelley,  Jihan Kim,  R. A. King,  R. Z. Khaliullin,  P. P. Korambath,  
 W. Kurlancheek,  A. Laurent,  A. M. Lee,  M. S. Lee,  S. V. Levchenko,  
 Ching Yeh Lin,  D. Liotard,  E. Livshits,  R. C. Lochan,  I. Lotan,  
 L. A. Martinez-Martinez,  P. E. Maslen,  N. Nair,  D. P. O'Neill,  
 D. Neuhauser,  E. Neuscamman,  C. M. Oana,  R. Olivares-Amaya,  R. Olson,  
 T. M. Perrine,  B. Peters,  P. A. Pieniazek,  A. Prociuk,  Y. M. Rhee,  
 J. Ritchie,  M. A. Rohrdanz,  E. Rosta,  N. J. Russ,  H. F. Schaefer III,  
 M. W. Schmidt,  N. E. Schultz,  S. Sharma,  N. Shenvi,  C. D. Sherrill,  
 A. C. Simmonett,  A. Sodt,  T. Stein,  D. Stuck,  K. S. Thanthiriwatte,  
 V. Vanovschi,  L. Vogt,  Tao Wang,  A. Warshel,  M. A. Watson,  
 C. F. Williams,  Q. Wu,  X. Xu,  Jun Yang,  W. Zhang,  Yan Zhao

   Please cite Q-Chem as follows:
  "Software for the frontiers of quantum chemistry:
   An overview of developments in the Q-Chem 5 package"
   J. Chem. Phys. 155, 084801 (2021)
   https://doi.org/10.1063/5.0055522 (open access)

 Q-Chem 6.2.2 for Intel X86 EM64T Linux

 Parts of Q-Chem use Armadillo 9.900.5 (Nocturnal Misbehaviour).
 http://arma.sourceforge.net/

 Q-Chem begins on Thu Jan  9 13:27:36 2025  

 Host: compute-0-14.local
0

     Scratch files written to /scratch/keith/A0D2_1//
 Processing $rem in /home/keith/software/qchem/qchem_622/config/preferences:
 Processing $rem in /home/keith/.qchemrc:

 Checking the input file for inconsistencies... 	...done.

--------------------------------------------------------------
User input:
--------------------------------------------------------------
$molecule
read
$end

$rem
method                    b3lyp 
basis                     cc-pv5z 
mem_total                 63000
mem_static                8000
thresh                    12
scf_convergence           8
xc_grid                   000075000302
max_scf_cycles            2000
symmetry                  false
sym_ignore                true
scf_guess                 read
skip_scfman               true
cis_n_roots               150
cis_triplets              false
rpa                       false 
trnss                     true
trtype                    3
n_sol                     1
nto_pairs                 2
gui                       2
print_orbitals            true
state_analysis            true
$end

$solute 
5 
$end
--------------------------------------------------------------
 ----------------------------------------------------------------
             Standard Nuclear Orientation (Angstroms)
    I     Atom           X                Y                Z
 ----------------------------------------------------------------
    1      O      -0.1870600000     0.4079100000     0.8353000000
    2      H      -0.8690600000     0.6117100000     0.2213000000
    3      H      -0.1744600000     1.1012100000     1.4823000000
    4      O       0.2809400000    -0.3987900000    -2.7917000000
    5      H       0.5444400000    -1.2950900000    -2.5627000000
    6      H      -0.5869600000    -0.3085900000    -2.4447000000
    7      O       2.3574400000    -0.8474900000    -0.5717000000
    8      H       1.5353400000    -0.5364900000    -0.9397000000
    9      H       2.9983900000    -0.5906900000    -1.2677000000
   10      O      -0.7711600000    -2.5495900000     0.4993000000
   11      H      -0.8173600000    -3.4179900000     1.0153000000
   12      H      -0.4970600000    -1.8841900000     1.1493000000
   13      O       0.8000400000     2.7072100000     2.5423000000
   14      H       0.5150400000     3.6204100000     2.3543000000
   15      H       1.2894400000     2.6250100000     3.3843000000
   16      O      -2.5073600000     1.3416100000    -1.3347000000
   17      H      -2.6361600000     2.1976100000    -0.9037000000
   18      H      -3.4237600000     0.9553100000    -1.3417000000
   19      O       3.2582000000     1.3597100000     1.5613000000
   20      H       2.3841400000     1.7191100000     1.8563000000
   21      H       3.0237900000     0.6256100000     0.9573000000
   22      O      -3.1151600000    -2.1013900000    -0.7937000000
   23      H      -2.8666600000    -2.1794900000    -1.7257000000
   24      H      -2.2588600000    -1.9609900000    -0.3837000000
 ----------------------------------------------------------------
 Nuclear Repulsion Energy =         432.61100036 hartrees
 There are       40 alpha and       40 beta electrons
 Requested basis set is cc-pV5Z
 There are 408 shells and 1608 basis functions

 Total QAlloc Memory Limit  63000 MB
 Mega-Array Size      7821 MB
 MEM_STATIC part      8000 MB

 A cutoff of  1.0D-12 yielded  46592 shell pairs
 There are    592500 function pairs (    970599 Cartesian)
 Smallest overlap matrix eigenvalue = 2.38E-05

 Scale SEOQF with 1.000000e-01/1.000000e-01/1.000000e-01

 Standard Electronic Orientation quadrupole field applied
 Nucleus-field energy     =     0.0000000065 hartrees
 Guess MOs from SCF MO coefficient file
 Reading MOs from coefficient file
 Reading MOs from coefficient file
 Skipping gen_scfman as requested.
 MAX_CIS_SUBSPACE fits in available memory
 Direct TDDFT/TDA calculation will be performed
 Exchange:     0.2000 Hartree-Fock + 0.0800 Slater + 0.7200 B88
 Correlation:  0.1900 VWN1RPA + 0.8100 LYP
 Using Euler-Maclaurin-Lebedev (75,302) quadrature formula
 Singlet excitation energies requested
 CIS energy converged when residual is below 10e- 6
   
 ***Using a Restricted Set of Single Excitations***
   
 RCIS calculation
   
 Excitations from specified occupied orbitals
 -------------------------------------------------------------
              Orbitals in Truncated CIS space
 -------------------------------------------------------------
     5  41  42  43  44  45  46  47  48  49  50  51  52  53  54
    55  56  57  58  59  60  61  62  63  64  65  66  67  68  69
    70  71  72  73  74  75  76  77  78  79  80  81  82  83  84
    85  86  87  88  89  90  91  92  93  94  95  96  97  98  99
   100 101 102 103 104 105 106 107 108 109 110 111 112 113 114
   115 116 117 118 119 120 121 122 123 124 125 126 127 128 129
   130 131 132 133 134 135 136 137 138 139 140 141 142 143 144
   145 146 147 148 149 150 151 152 153 154 155 156 157 158 159
   160 161 162 163 164 165 166 167 168 169 170 171 172 173 174
   175 176 177 178 179 180 181 182 183 184 185 186 187 188 189
   190 191 192 193 194 195 196 197 198 199 200 201 202 203 204
   205 206 207 208 209 210 211 212 213 214 215 216 217 218 219
   220 221 222 223 224 225 226 227 228 229 230 231 232 233 234
   235 236 237 238 239 240 241 242 243 244 245 246 247 248 249
   250 251 252 253 254 255 256 257 258 259 260 261 262 263 264
   265 266 267 268 269 270 271 272 273 274 275 276 277 278 279
   280 281 282 283 284 285 286 287 288 289 290 291 292 293 294
   295 296 297 298 299 300 301 302 303 304 305 306 307 308 309
   310 311 312 313 314 315 316 317 318 319 320 321 322 323 324
   325 326 327 328 329 330 331 332 333 334 335 336 337 338 339
   340 341 342 343 344 345 346 347 348 349 350 351 352 353 354
   355 356 357 358 359 360 361 362 363 364 365 366 367 368 369
   370 371 372 373 374 375 376 377 378 379 380 381 382 383 384
   385 386 387 388 389 390 391 392 393 394 395 396 397 398 399
   400 401 402 403 404 405 406 407 408 409 410 411 412 413 414
   415 416 417 418 419 420 421 422 423 424 425 426 427 428 429
   430 431 432 433 434 435 436 437 438 439 440 441 442 443 444
   445 446 447 448 449 450 451 452 453 454 455 456 457 458 459
   460 461 462 463 464 465 466 467 468 469 470 471 472 473 474
   475 476 477 478 479 480 481 482 483 484 485 486 487 488 489
   490 491 492 493 494 495 496 497 498 499 500 501 502 503 504
   505 506 507 508 509 510 511 512 513 514 515 516 517 518 519
   520 521 522 523 524 525 526 527 528 529 530 531 532 533 534
   535 536 537 538 539 540 541 542 543 544 545 546 547 548 549
   550 551 552 553 554 555 556 557 558 559 560 561 562 563 564
   565 566 567 568 569 570 571 572 573 574 575 576 577 578 579
   580 581 582 583 584 585 586 587 588 589 590 591 592 593 594
   595 596 597 598 599 600 601 602 603 604 605 606 607 608 609
   610 611 612 613 614 615 616 617 618 619 620 621 622 623 624
   625 626 627 628 629 630 631 632 633 634 635 636 637 638 639
   640 641 642 643 644 645 646 647 648 649 650 651 652 653 654
   655 656 657 658 659 660 661 662 663 664 665 666 667 668 669
   670 671 672 673 674 675 676 677 678 679 680 681 682 683 684
   685 686 687 688 689 690 691 692 693 694 695 696 697 698 699
   700 701 702 703 704 705 706 707 708 709 710 711 712 713 714
   715 716 717 718 719 720 721 722 723 724 725 726 727 728 729
   730 731 732 733 734 735 736 737 738 739 740 741 742 743 744
   745 746 747 748 749 750 751 752 753 754 755 756 757 758 759
   760 761 762 763 764 765 766 767 768 769 770 771 772 773 774
   775 776 777 778 779 780 781 782 783 784 785 786 787 788 789
   790 791 792 793 794 795 796 797 798 799 800 801 802 803 804
   805 806 807 808 809 810 811 812 813 814 815 816 817 818 819
   820 821 822 823 824 825 826 827 828 829 830 831 832 833 834
   835 836 837 838 839 840 841 842 843 844 845 846 847 848 849
   850 851 852 853 854 855 856 857 858 859 860 861 862 863 864
   865 866 867 868 869 870 871 872 873 874 875 876 877 878 879
   880 881 882 883 884 885 886 887 888 889 890 891 892 893 894
   895 896 897 898 899 900 901 902 903 904 905 906 907 908 909
   910 911 912 913 914 915 916 917 918 919 920 921 922 923 924
   925 926 927 928 929 930 931 932 933 934 935 936 937 938 939
   940 941 942 943 944 945 946 947 948 949 950 951 952 953 954
   955 956 957 958 959 960 961 962 963 964 965 966 967 968 969
   970 971 972 973 974 975 976 977 978 979 980 981 982 983 984
   985 986 987 988 989 990 991 992 993 994 995 996 997 998 999
  100010011002100310041005100610071008100910101011101210131014
  101510161017101810191020102110221023102410251026102710281029
  103010311032103310341035103610371038103910401041104210431044
  104510461047104810491050105110521053105410551056105710581059
  106010611062106310641065106610671068106910701071107210731074
  107510761077107810791080108110821083108410851086108710881089
  109010911092109310941095109610971098109911001101110211031104
  110511061107110811091110111111121113111411151116111711181119
  112011211122112311241125112611271128112911301131113211331134
  113511361137113811391140114111421143114411451146114711481149
  115011511152115311541155115611571158115911601161116211631164
  116511661167116811691170117111721173117411751176117711781179
  118011811182118311841185118611871188118911901191119211931194
  119511961197119811991200120112021203120412051206120712081209
  121012111212121312141215121612171218121912201221122212231224
  122512261227122812291230123112321233123412351236123712381239
  124012411242124312441245124612471248124912501251125212531254
  125512561257125812591260126112621263126412651266126712681269
  127012711272127312741275127612771278127912801281128212831284
  128512861287128812891290129112921293129412951296129712981299
  130013011302130313041305130613071308130913101311131213131314
  131513161317131813191320132113221323132413251326132713281329
  133013311332133313341335133613371338133913401341134213431344
  134513461347134813491350135113521353135413551356135713581359
  136013611362136313641365136613671368136913701371137213731374
  137513761377137813791380138113821383138413851386138713881389
  139013911392139313941395139613971398139914001401140214031404
  140514061407140814091410141114121413141414151416141714181419
  142014211422142314241425142614271428142914301431143214331434
  143514361437143814391440144114421443144414451446144714481449
  145014511452145314541455145614571458145914601461146214631464
  146514661467146814691470147114721473147414751476147714781479
  148014811482148314841485148614871488148914901491149214931494
  149514961497149814991500150115021503150415051506150715081509
  151015111512151315141515151615171518151915201521152215231524
  152515261527152815291530153115321533153415351536153715381539
  154015411542154315441545154615471548154915501551155215531554
  155515561557155815591560156115621563156415651566156715681569
  157015711572157315741575157615771578157915801581158215831584
  158515861587158815891590159115921593159415951596159715981599
  160016011602160316041605160616071608
   
    Number of Occupied Orbitals =    1  out of    40
    Number of Virtual Orbitals  = 1568  out of  1568
 -------------------------------------------------------------
 Number of Roots adjusted to:         150
 ---------------------------------------------------
 Iter    Rts Conv    Rts Left    Ttl Dev     Max Dev
 ---------------------------------------------------
   1         0         150      0.010386    0.000206
   2        31         119      0.006551    0.000117
   3       143           7      0.006539    0.000117
   4       150           0      0.006539    0.000117    Roots Converged
 ---------------------------------------------------

 ---------------------------------------------------
         TDDFT/TDA Excitation Energies              
 ---------------------------------------------------

 Excited state   1: excitation energy (eV) =     518.3302
 Total energy for state   1:                  -592.77044811 au
    Multiplicity: Singlet
    Trans. Mom.:  0.0083 X  -0.0091 Y  -0.0003 Z
    Strength   :     0.0019273899
    D(    5) --> V(    1) amplitude =  0.9862

 Excited state   2: excitation energy (eV) =     518.9629
 Total energy for state   2:                  -592.74720002 au
    Multiplicity: Singlet
    Trans. Mom.: -0.0053 X  -0.0070 Y  -0.0083 Z
    Strength   :     0.0018684211
    D(    5) --> V(    2) amplitude =  0.9960

 Excited state   3: excitation energy (eV) =     519.4065
 Total energy for state   3:                  -592.73089681 au
    Multiplicity: Singlet
    Trans. Mom.: -0.0051 X   0.0087 Y  -0.0041 Z
    Strength   :     0.0015019334
    D(    5) --> V(    3) amplitude =  0.9931

 Excited state   4: excitation energy (eV) =     519.9534
 Total energy for state   4:                  -592.71079956 au
    Multiplicity: Singlet
    Trans. Mom.:  0.0077 X   0.0029 Y  -0.0076 Z
    Strength   :     0.0016095553
    D(    5) --> V(    4) amplitude =  0.9768

 Excited state   5: excitation energy (eV) =     520.2887
 Total energy for state   5:                  -592.69847534 au
    Multiplicity: Singlet
    Trans. Mom.:  0.0022 X  -0.0049 Y   0.0002 Z
    Strength   :     0.0003672853
    D(    5) --> V(    5) amplitude =  0.9525

 Excited state   6: excitation energy (eV) =     520.6456
 Total energy for state   6:                  -592.68536094 au
    Multiplicity: Singlet
    Trans. Mom.:  0.0025 X   0.0008 Y  -0.0043 Z
    Strength   :     0.0003209089
    D(    5) --> V(    6) amplitude =  0.9613

 Excited state   7: excitation energy (eV) =     520.7982
 Total energy for state   7:                  -592.67975147 au
    Multiplicity: Singlet
    Trans. Mom.: -0.0128 X   0.0105 Y   0.0030 Z
    Strength   :     0.0035930409
    D(    5) --> V(    5) amplitude =  0.2388
    D(    5) --> V(    6) amplitude =  0.2464
    D(    5) --> V(    7) amplitude =  0.6794
    D(    5) --> V(    8) amplitude = -0.5868

 Excited state   8: excitation energy (eV) =     521.1722
 Total energy for state   8:                  -592.66600957 au
    Multiplicity: Singlet
    Trans. Mom.:  0.0006 X   0.0016 Y  -0.0032 Z
    Strength   :     0.0001671759
    D(    5) --> V(    7) amplitude =  0.6766
    D(    5) --> V(    8) amplitude =  0.7237

 Excited state   9: excitation energy (eV) =     521.5869
 Total energy for state   9:                  -592.65076709 au
    Multiplicity: Singlet
    Trans. Mom.:  0.0054 X  -0.0017 Y   0.0123 Z
    Strength   :     0.0023367689
    D(    5) --> V(    9) amplitude =  0.8832
    D(    5) --> V(   10) amplitude = -0.3777

 Excited state  10: excitation energy (eV) =     521.6925
 Total energy for state  10:                  -592.64688660 au
    Multiplicity: Singlet
    Trans. Mom.: -0.0033 X   0.0093 Y  -0.0192 Z
    Strength   :     0.0059634315
    D(    5) --> V(    9) amplitude =  0.4334
    D(    5) --> V(   10) amplitude =  0.8111
    D(    5) --> V(   12) amplitude = -0.2832

 Excited state  11: excitation energy (eV) =     521.9503
 Total energy for state  11:                  -592.63741505 au
    Multiplicity: Singlet
    Trans. Mom.:  0.0113 X  -0.0145 Y  -0.0088 Z
    Strength   :     0.0053099250
    D(    5) --> V(   10) amplitude =  0.2736
    D(    5) --> V(   11) amplitude =  0.8428
    D(    5) --> V(   12) amplitude =  0.3458

 Excited state  12: excitation energy (eV) =     522.2416
 Total energy for state  12:                  -592.62670729 au
    Multiplicity: Singlet
    Trans. Mom.: -0.0090 X  -0.0172 Y  -0.0073 Z
    Strength   :     0.0055022009
    D(    5) --> V(   11) amplitude = -0.4435
    D(    5) --> V(   12) amplitude =  0.7635
    D(    5) --> V(   13) amplitude = -0.4234

 Excited state  13: excitation energy (eV) =     522.5149
 Total energy for state  13:                  -592.61666675 au
    Multiplicity: Singlet
    Trans. Mom.:  0.0124 X   0.0093 Y   0.0169 Z
    Strength   :     0.0066978642
    D(    5) --> V(   10) amplitude =  0.2815
    D(    5) --> V(   12) amplitude =  0.4183
    D(    5) --> V(   13) amplitude =  0.8046

 Excited state  14: excitation energy (eV) =     522.9661
 Total energy for state  14:                  -592.60008433 au
    Multiplicity: Singlet
    Trans. Mom.:  0.0048 X   0.0031 Y  -0.0144 Z
    Strength   :     0.0030663128
    D(    5) --> V(   14) amplitude =  0.9483

 Excited state  15: excitation energy (eV) =     523.2317
 Total energy for state  15:                  -592.59032475 au
    Multiplicity: Singlet
    Trans. Mom.:  0.0165 X  -0.0035 Y   0.0052 Z
    Strength   :     0.0040067877
    D(    5) --> V(   15) amplitude =  0.8451
    D(    5) --> V(   16) amplitude = -0.3786

 Excited state  16: excitation energy (eV) =     523.6013
 Total energy for state  16:                  -592.57674228 au
    Multiplicity: Singlet
    Trans. Mom.:  0.0131 X  -0.0011 Y   0.0161 Z
    Strength   :     0.0055448391
    D(    5) --> V(   15) amplitude = -0.4613
    D(    5) --> V(   16) amplitude = -0.4691
    D(    5) --> V(   17) amplitude =  0.5963
    D(    5) --> V(   18) amplitude = -0.2783

 Excited state  17: excitation energy (eV) =     523.8217
 Total energy for state  17:                  -592.56864095 au
    Multiplicity: Singlet
    Trans. Mom.: -0.0049 X  -0.0005 Y   0.0022 Z
    Strength   :     0.0003740737
    D(    5) --> V(   16) amplitude =  0.7141
    D(    5) --> V(   17) amplitude =  0.6034

 Excited state  18: excitation energy (eV) =     524.1392
 Total energy for state  18:                  -592.55697286 au
    Multiplicity: Singlet
    Trans. Mom.: -0.0014 X  -0.0062 Y  -0.0075 Z
    Strength   :     0.0012472813
    D(    5) --> V(   17) amplitude =  0.4542
    D(    5) --> V(   18) amplitude =  0.7147
    D(    5) --> V(   19) amplitude =  0.4450

 Excited state  19: excitation energy (eV) =     524.5324
 Total energy for state  19:                  -592.54252285 au
    Multiplicity: Singlet
    Trans. Mom.: -0.0064 X  -0.0032 Y  -0.0006 Z
    Strength   :     0.0006683516
    D(    5) --> V(   18) amplitude = -0.5482
    D(    5) --> V(   19) amplitude =  0.8179

 Excited state  20: excitation energy (eV) =     524.7779
 Total energy for state  20:                  -592.53350175 au
    Multiplicity: Singlet
    Trans. Mom.: -0.0040 X   0.0015 Y  -0.0046 Z
    Strength   :     0.0005032478
    D(    5) --> V(   20) amplitude =  0.9621

 Excited state  21: excitation energy (eV) =     524.9640
 Total energy for state  21:                  -592.52666104 au
    Multiplicity: Singlet
    Trans. Mom.: -0.0090 X  -0.0092 Y  -0.0045 Z
    Strength   :     0.0023843124
    D(    5) --> V(   19) amplitude = -0.2180
    D(    5) --> V(   21) amplitude =  0.9063

 Excited state  22: excitation energy (eV) =     525.1364
 Total energy for state  22:                  -592.52032535 au
    Multiplicity: Singlet
    Trans. Mom.: -0.0071 X   0.0009 Y   0.0003 Z
    Strength   :     0.0006694161
    D(    5) --> V(   22) amplitude =  0.9470

 Excited state  23: excitation energy (eV) =     525.2762
 Total energy for state  23:                  -592.51518730 au
    Multiplicity: Singlet
    Trans. Mom.:  0.0037 X  -0.0024 Y  -0.0001 Z
    Strength   :     0.0002474052
    D(    5) --> V(   23) amplitude =  0.9334
    D(    5) --> V(   24) amplitude =  0.2195

 Excited state  24: excitation energy (eV) =     525.2963
 Total energy for state  24:                  -592.51445108 au
    Multiplicity: Singlet
    Trans. Mom.: -0.0021 X  -0.0097 Y  -0.0108 Z
    Strength   :     0.0027623353
    D(    5) --> V(   24) amplitude =  0.7401
    D(    5) --> V(   25) amplitude = -0.3785
    D(    5) --> V(   28) amplitude =  0.3264

 Excited state  25: excitation energy (eV) =     525.4663
 Total energy for state  25:                  -592.50820166 au
    Multiplicity: Singlet
    Trans. Mom.:  0.0110 X   0.0167 Y  -0.0008 Z
    Strength   :     0.0051655153
    D(    5) --> V(   21) amplitude =  0.2123
    D(    5) --> V(   24) amplitude =  0.5319
    D(    5) --> V(   25) amplitude =  0.6415
    D(    5) --> V(   28) amplitude = -0.3422

 Excited state  26: excitation energy (eV) =     525.7317
 Total energy for state  26:                  -592.49845139 au
    Multiplicity: Singlet
    Trans. Mom.: -0.0004 X  -0.0081 Y  -0.0088 Z
    Strength   :     0.0018502954
    D(    5) --> V(   25) amplitude =  0.5312
    D(    5) --> V(   26) amplitude = -0.3197
    D(    5) --> V(   27) amplitude = -0.3183
    D(    5) --> V(   28) amplitude =  0.6214

 Excited state  27: excitation energy (eV) =     525.8072
 Total energy for state  27:                  -592.49567449 au
    Multiplicity: Singlet
    Trans. Mom.:  0.0056 X  -0.0093 Y   0.0075 Z
    Strength   :     0.0022477022
    D(    5) --> V(   25) amplitude =  0.2533
    D(    5) --> V(   27) amplitude =  0.8951

 Excited state  28: excitation energy (eV) =     525.9411
 Total energy for state  28:                  -592.49075390 au
    Multiplicity: Singlet
    Trans. Mom.: -0.0035 X   0.0009 Y  -0.0006 Z
    Strength   :     0.0001769165
    D(    5) --> V(   26) amplitude =  0.8829
    D(    5) --> V(   28) amplitude =  0.3953

 Excited state  29: excitation energy (eV) =     526.1992
 Total energy for state  29:                  -592.48126948 au
    Multiplicity: Singlet
    Trans. Mom.:  0.0036 X  -0.0067 Y  -0.0119 Z
    Strength   :     0.0025538003
    D(    5) --> V(   28) amplitude = -0.2339
    D(    5) --> V(   29) amplitude =  0.7535
    D(    5) --> V(   30) amplitude =  0.3148
    D(    5) --> V(   31) amplitude = -0.2532
    D(    5) --> V(   33) amplitude = -0.3701

 Excited state  30: excitation energy (eV) =     526.3168
 Total energy for state  30:                  -592.47694659 au
    Multiplicity: Singlet
    Trans. Mom.: -0.0097 X   0.0101 Y   0.0109 Z
    Strength   :     0.0040730728
    D(    5) --> V(   28) amplitude =  0.2565
    D(    5) --> V(   29) amplitude =  0.6012
    D(    5) --> V(   30) amplitude = -0.4395
    D(    5) --> V(   33) amplitude =  0.5364

 Excited state  31: excitation energy (eV) =     526.3679
 Total energy for state  31:                  -592.47507042 au
    Multiplicity: Singlet
    Trans. Mom.: -0.0020 X  -0.0013 Y   0.0071 Z
    Strength   :     0.0007205120
    D(    5) --> V(   30) amplitude =  0.7399
    D(    5) --> V(   31) amplitude =  0.4547
    D(    5) --> V(   33) amplitude =  0.4575

 Excited state  32: excitation energy (eV) =     526.5095
 Total energy for state  32:                  -592.46986726 au
    Multiplicity: Singlet
    Trans. Mom.:  0.0010 X  -0.0065 Y   0.0003 Z
    Strength   :     0.0005575223
    D(    5) --> V(   30) amplitude = -0.2554
    D(    5) --> V(   31) amplitude =  0.7935
    D(    5) --> V(   32) amplitude =  0.2898
    D(    5) --> V(   33) amplitude = -0.3754

 Excited state  33: excitation energy (eV) =     526.6168
 Total energy for state  33:                  -592.46592182 au
    Multiplicity: Singlet
    Trans. Mom.: -0.0012 X   0.0017 Y  -0.0051 Z
    Strength   :     0.0003909790
    D(    5) --> V(   32) amplitude =  0.9424

 Excited state  34: excitation energy (eV) =     526.8180
 Total energy for state  34:                  -592.45853075 au
    Multiplicity: Singlet
    Trans. Mom.:  0.0021 X   0.0021 Y   0.0066 Z
    Strength   :     0.0006715698
    D(    5) --> V(   34) amplitude =  0.9660

 Excited state  35: excitation energy (eV) =     526.9965
 Total energy for state  35:                  -592.45197053 au
    Multiplicity: Singlet
    Trans. Mom.: -0.0107 X  -0.0031 Y  -0.0059 Z
    Strength   :     0.0020415130
    D(    5) --> V(   35) amplitude =  0.8971
    D(    5) --> V(   38) amplitude =  0.2547

 Excited state  36: excitation energy (eV) =     527.2245
 Total energy for state  36:                  -592.44358926 au
    Multiplicity: Singlet
    Trans. Mom.: -0.0031 X  -0.0116 Y  -0.0061 Z
    Strength   :     0.0023392736
    D(    5) --> V(   35) amplitude = -0.3216
    D(    5) --> V(   36) amplitude =  0.3464
    D(    5) --> V(   37) amplitude =  0.4863
    D(    5) --> V(   38) amplitude =  0.6646

 Excited state  37: excitation energy (eV) =     527.2645
 Total energy for state  37:                  -592.44212074 au
    Multiplicity: Singlet
    Trans. Mom.:  0.0052 X  -0.0125 Y   0.0076 Z
    Strength   :     0.0031135487
    D(    5) --> V(   35) amplitude =  0.2122
    D(    5) --> V(   36) amplitude =  0.6701
    D(    5) --> V(   37) amplitude =  0.3305
    D(    5) --> V(   38) amplitude = -0.4444
    D(    5) --> V(   41) amplitude = -0.2457

 Excited state  38: excitation energy (eV) =     527.3676
 Total energy for state  38:                  -592.43833248 au
    Multiplicity: Singlet
    Trans. Mom.: -0.0055 X  -0.0037 Y   0.0056 Z
    Strength   :     0.0009716471
    D(    5) --> V(   36) amplitude = -0.5301
    D(    5) --> V(   37) amplitude =  0.7219
    D(    5) --> V(   38) amplitude = -0.3325

 Excited state  39: excitation energy (eV) =     527.5127
 Total energy for state  39:                  -592.43300034 au
    Multiplicity: Singlet
    Trans. Mom.:  0.0017 X   0.0055 Y   0.0072 Z
    Strength   :     0.0011041811
    D(    5) --> V(   37) amplitude =  0.2669
    D(    5) --> V(   39) amplitude =  0.8458
    D(    5) --> V(   41) amplitude =  0.2801

 Excited state  40: excitation energy (eV) =     527.6399
 Total energy for state  40:                  -592.42832504 au
    Multiplicity: Singlet
    Trans. Mom.: -0.0063 X   0.0092 Y  -0.0006 Z
    Strength   :     0.0016200201
    D(    5) --> V(   36) amplitude =  0.2212
    D(    5) --> V(   38) amplitude = -0.2649
    D(    5) --> V(   39) amplitude = -0.2669
    D(    5) --> V(   40) amplitude =  0.6881
    D(    5) --> V(   41) amplitude =  0.4524

 Excited state  41: excitation energy (eV) =     527.7605
 Total energy for state  41:                  -592.42389250 au
    Multiplicity: Singlet
    Trans. Mom.:  0.0100 X  -0.0085 Y  -0.0020 Z
    Strength   :     0.0022671451
    D(    5) --> V(   36) amplitude = -0.2348
    D(    5) --> V(   40) amplitude =  0.6861
    D(    5) --> V(   41) amplitude = -0.5665
    D(    5) --> V(   45) amplitude =  0.2343

 Excited state  42: excitation energy (eV) =     528.0604
 Total energy for state  42:                  -592.41287130 au
    Multiplicity: Singlet
    Trans. Mom.: -0.0098 X   0.0054 Y  -0.0041 Z
    Strength   :     0.0018318165
    D(    5) --> V(   41) amplitude = -0.5189
    D(    5) --> V(   42) amplitude =  0.5691
    D(    5) --> V(   45) amplitude = -0.5624

 Excited state  43: excitation energy (eV) =     528.1603
 Total energy for state  43:                  -592.40920125 au
    Multiplicity: Singlet
    Trans. Mom.:  0.0092 X   0.0014 Y  -0.0042 Z
    Strength   :     0.0013373577
    D(    5) --> V(   42) amplitude =  0.5388
    D(    5) --> V(   43) amplitude =  0.4626
    D(    5) --> V(   44) amplitude =  0.3360
    D(    5) --> V(   45) amplitude =  0.5750

 Excited state  44: excitation energy (eV) =     528.2415
 Total energy for state  44:                  -592.40621808 au
    Multiplicity: Singlet
    Trans. Mom.: -0.0015 X   0.0027 Y  -0.0042 Z
    Strength   :     0.0003568422
    D(    5) --> V(   42) amplitude = -0.5016
    D(    5) --> V(   43) amplitude =  0.8030
    D(    5) --> V(   45) amplitude = -0.2446

 Excited state  45: excitation energy (eV) =     528.3054
 Total energy for state  45:                  -592.40386661 au
    Multiplicity: Singlet
    Trans. Mom.: -0.0045 X  -0.0060 Y  -0.0048 Z
    Strength   :     0.0010300960
    D(    5) --> V(   43) amplitude = -0.2204
    D(    5) --> V(   44) amplitude =  0.8840
    D(    5) --> V(   45) amplitude = -0.3182

 Excited state  46: excitation energy (eV) =     528.5870
 Total energy for state  46:                  -592.39352039 au
    Multiplicity: Singlet
    Trans. Mom.: -0.0055 X   0.0042 Y  -0.0001 Z
    Strength   :     0.0006202743
    D(    5) --> V(   46) amplitude =  0.9440

 Excited state  47: excitation energy (eV) =     528.6439
 Total energy for state  47:                  -592.39142958 au
    Multiplicity: Singlet
    Trans. Mom.:  0.0063 X   0.0041 Y   0.0003 Z
    Strength   :     0.0007354475
    D(    5) --> V(   47) amplitude =  0.9496

 Excited state  48: excitation energy (eV) =     529.0044
 Total energy for state  48:                  -592.37817982 au
    Multiplicity: Singlet
    Trans. Mom.: -0.0004 X  -0.0038 Y  -0.0055 Z
    Strength   :     0.0005728618
    D(    5) --> V(   48) amplitude =  0.9368
    D(    5) --> V(   50) amplitude =  0.2185

 Excited state  49: excitation energy (eV) =     529.0959
 Total energy for state  49:                  -592.37481584 au
    Multiplicity: Singlet
    Trans. Mom.: -0.0024 X   0.0029 Y  -0.0073 Z
    Strength   :     0.0008648472
    D(    5) --> V(   49) amplitude =  0.9686

 Excited state  50: excitation energy (eV) =     529.2627
 Total energy for state  50:                  -592.36868668 au
    Multiplicity: Singlet
    Trans. Mom.:  0.0007 X  -0.0061 Y  -0.0044 Z
    Strength   :     0.0007325938
    D(    5) --> V(   48) amplitude = -0.2507
    D(    5) --> V(   50) amplitude =  0.9416

 Excited state  51: excitation energy (eV) =     529.6748
 Total energy for state  51:                  -592.35354201 au
    Multiplicity: Singlet
    Trans. Mom.:  0.0092 X   0.0035 Y  -0.0020 Z
    Strength   :     0.0013179231
    D(    5) --> V(   51) amplitude =  0.9671

 Excited state  52: excitation energy (eV) =     529.8549
 Total energy for state  52:                  -592.34692366 au
    Multiplicity: Singlet
    Trans. Mom.: -0.0026 X  -0.0033 Y   0.0150 Z
    Strength   :     0.0031307094
    D(    5) --> V(   52) amplitude = -0.2542
    D(    5) --> V(   53) amplitude =  0.9278

 Excited state  53: excitation energy (eV) =     529.9690
 Total energy for state  53:                  -592.34273143 au
    Multiplicity: Singlet
    Trans. Mom.: -0.0019 X   0.0017 Y   0.0008 Z
    Strength   :     0.0000892433
    D(    5) --> V(   52) amplitude =  0.9299
    D(    5) --> V(   53) amplitude =  0.2441

 Excited state  54: excitation energy (eV) =     530.1948
 Total energy for state  54:                  -592.33443562 au
    Multiplicity: Singlet
    Trans. Mom.:  0.0060 X  -0.0073 Y   0.0037 Z
    Strength   :     0.0013428441
    D(    5) --> V(   54) amplitude =  0.9595

 Excited state  55: excitation energy (eV) =     530.5578
 Total energy for state  55:                  -592.32109237 au
    Multiplicity: Singlet
    Trans. Mom.: -0.0012 X   0.0048 Y  -0.0047 Z
    Strength   :     0.0006046989
    D(    5) --> V(   55) amplitude =  0.9637

 Excited state  56: excitation energy (eV) =     530.6768
 Total energy for state  56:                  -592.31672066 au
    Multiplicity: Singlet
    Trans. Mom.:  0.0038 X   0.0057 Y  -0.0023 Z
    Strength   :     0.0006741311
    D(    5) --> V(   56) amplitude =  0.9677

 Excited state  57: excitation energy (eV) =     531.0690
 Total energy for state  57:                  -592.30230831 au
    Multiplicity: Singlet
    Trans. Mom.:  0.0070 X   0.0020 Y   0.0068 Z
    Strength   :     0.0012791834
    D(    5) --> V(   57) amplitude =  0.9416
    D(    5) --> V(   59) amplitude =  0.2289

 Excited state  58: excitation energy (eV) =     531.2592
 Total energy for state  58:                  -592.29531692 au
    Multiplicity: Singlet
    Trans. Mom.:  0.0052 X  -0.0003 Y  -0.0104 Z
    Strength   :     0.0017652023
    D(    5) --> V(   58) amplitude =  0.9579

 Excited state  59: excitation energy (eV) =     531.6810
 Total energy for state  59:                  -592.27981814 au
    Multiplicity: Singlet
    Trans. Mom.:  0.0022 X  -0.0062 Y   0.0125 Z
    Strength   :     0.0025999341
    D(    5) --> V(   59) amplitude =  0.6169
    D(    5) --> V(   60) amplitude =  0.5373
    D(    5) --> V(   61) amplitude =  0.2906
    D(    5) --> V(   62) amplitude = -0.4065

 Excited state  60: excitation energy (eV) =     531.7503
 Total energy for state  60:                  -592.27726953 au
    Multiplicity: Singlet
    Trans. Mom.:  0.0036 X   0.0066 Y  -0.0054 Z
    Strength   :     0.0011207884
    D(    5) --> V(   57) amplitude = -0.2236
    D(    5) --> V(   59) amplitude =  0.6859
    D(    5) --> V(   60) amplitude = -0.6526

 Excited state  61: excitation energy (eV) =     532.0099
 Total energy for state  61:                  -592.26772940 au
    Multiplicity: Singlet
    Trans. Mom.: -0.0092 X  -0.0016 Y   0.0027 Z
    Strength   :     0.0012363860
    D(    5) --> V(   59) amplitude = -0.2386
    D(    5) --> V(   60) amplitude = -0.4297
    D(    5) --> V(   61) amplitude =  0.7397
    D(    5) --> V(   62) amplitude = -0.3911

 Excited state  62: excitation energy (eV) =     532.1427
 Total energy for state  62:                  -592.26285087 au
    Multiplicity: Singlet
    Trans. Mom.:  0.0056 X  -0.0032 Y  -0.0089 Z
    Strength   :     0.0015790209
    D(    5) --> V(   61) amplitude =  0.5604
    D(    5) --> V(   62) amplitude =  0.7692

 Excited state  63: excitation energy (eV) =     532.6311
 Total energy for state  63:                  -592.24489967 au
    Multiplicity: Singlet
    Trans. Mom.: -0.0038 X  -0.0024 Y  -0.0014 Z
    Strength   :     0.0002891325
    D(    5) --> V(   63) amplitude =  0.8477
    D(    5) --> V(   65) amplitude =  0.4268

 Excited state  64: excitation energy (eV) =     532.6886
 Total energy for state  64:                  -592.24278818 au
    Multiplicity: Singlet
    Trans. Mom.:  0.0019 X   0.0053 Y   0.0048 Z
    Strength   :     0.0007103960
    D(    5) --> V(   63) amplitude = -0.3429
    D(    5) --> V(   64) amplitude =  0.3499
    D(    5) --> V(   65) amplitude =  0.8433

 Excited state  65: excitation energy (eV) =     532.8872
 Total energy for state  65:                  -592.23548826 au
    Multiplicity: Singlet
    Trans. Mom.: -0.0092 X  -0.0034 Y  -0.0005 Z
    Strength   :     0.0012650773
    D(    5) --> V(   63) amplitude =  0.3250
    D(    5) --> V(   64) amplitude =  0.8487
    D(    5) --> V(   65) amplitude = -0.2598
    D(    5) --> V(   67) amplitude =  0.2401

 Excited state  66: excitation energy (eV) =     533.1056
 Total energy for state  66:                  -592.22746369 au
    Multiplicity: Singlet
    Trans. Mom.: -0.0104 X   0.0030 Y  -0.0051 Z
    Strength   :     0.0018536380
    D(    5) --> V(   64) amplitude = -0.2956
    D(    5) --> V(   66) amplitude = -0.6528
    D(    5) --> V(   67) amplitude =  0.6640

 Excited state  67: excitation energy (eV) =     533.2597
 Total energy for state  67:                  -592.22180217 au
    Multiplicity: Singlet
    Trans. Mom.: -0.0049 X  -0.0008 Y   0.0031 Z
    Strength   :     0.0004442236
    D(    5) --> V(   66) amplitude =  0.7184
    D(    5) --> V(   67) amplitude =  0.6582

 Excited state  68: excitation energy (eV) =     533.8222
 Total energy for state  68:                  -592.20113023 au
    Multiplicity: Singlet
    Trans. Mom.: -0.0022 X   0.0055 Y   0.0041 Z
    Strength   :     0.0006866233
    D(    5) --> V(   68) amplitude =  0.9707

 Excited state  69: excitation energy (eV) =     534.1065
 Total energy for state  69:                  -592.19068129 au
    Multiplicity: Singlet
    Trans. Mom.: -0.0034 X   0.0063 Y  -0.0077 Z
    Strength   :     0.0014532431
    D(    5) --> V(   69) amplitude =  0.9934

 Excited state  70: excitation energy (eV) =     534.2851
 Total energy for state  70:                  -592.18411970 au
    Multiplicity: Singlet
    Trans. Mom.:  0.0002 X  -0.0033 Y  -0.0013 Z
    Strength   :     0.0001704327
    D(    5) --> V(   70) amplitude =  0.9710

 Excited state  71: excitation energy (eV) =     534.6715
 Total energy for state  71:                  -592.16991784 au
    Multiplicity: Singlet
    Trans. Mom.:  0.0040 X  -0.0029 Y  -0.0027 Z
    Strength   :     0.0004090918
    D(    5) --> V(   71) amplitude =  0.9820

 Excited state  72: excitation energy (eV) =     534.8086
 Total energy for state  72:                  -592.16487982 au
    Multiplicity: Singlet
    Trans. Mom.:  0.0014 X   0.0042 Y   0.0086 Z
    Strength   :     0.0012171639
    D(    5) --> V(   72) amplitude =  0.9669

 Excited state  73: excitation energy (eV) =     534.9233
 Total energy for state  73:                  -592.16066417 au
    Multiplicity: Singlet
    Trans. Mom.: -0.0023 X   0.0009 Y   0.0025 Z
    Strength   :     0.0001619964
    D(    5) --> V(   73) amplitude =  0.8857
    D(    5) --> V(   74) amplitude = -0.2396
    D(    5) --> V(   75) amplitude =  0.2399

 Excited state  74: excitation energy (eV) =     535.1747
 Total energy for state  74:                  -592.15142706 au
    Multiplicity: Singlet
    Trans. Mom.:  0.0016 X  -0.0012 Y  -0.0023 Z
    Strength   :     0.0001172501
    D(    5) --> V(   74) amplitude =  0.9047
    D(    5) --> V(   75) amplitude =  0.3151

 Excited state  75: excitation energy (eV) =     535.3149
 Total energy for state  75:                  -592.14627399 au
    Multiplicity: Singlet
    Trans. Mom.: -0.0063 X   0.0005 Y   0.0005 Z
    Strength   :     0.0005275128
    D(    5) --> V(   73) amplitude = -0.3232
    D(    5) --> V(   74) amplitude = -0.2625
    D(    5) --> V(   75) amplitude =  0.9024

 Excited state  76: excitation energy (eV) =     535.4712
 Total energy for state  76:                  -592.14052991 au
    Multiplicity: Singlet
    Trans. Mom.: -0.0026 X  -0.0026 Y   0.0003 Z
    Strength   :     0.0001809661
    D(    5) --> V(   76) amplitude =  0.9656

 Excited state  77: excitation energy (eV) =     535.8318
 Total energy for state  77:                  -592.12727941 au
    Multiplicity: Singlet
    Trans. Mom.: -0.0014 X  -0.0026 Y   0.0011 Z
    Strength   :     0.0001280611
    D(    5) --> V(   77) amplitude =  0.9888

 Excited state  78: excitation energy (eV) =     536.2497
 Total energy for state  78:                  -592.11192201 au
    Multiplicity: Singlet
    Trans. Mom.:  0.0140 X  -0.0014 Y   0.0064 Z
    Strength   :     0.0031448369
    D(    5) --> V(   78) amplitude =  0.3568
    D(    5) --> V(   79) amplitude =  0.8876

 Excited state  79: excitation energy (eV) =     536.3307
 Total energy for state  79:                  -592.10894482 au
    Multiplicity: Singlet
    Trans. Mom.:  0.0015 X   0.0140 Y  -0.0039 Z
    Strength   :     0.0028098005
    D(    5) --> V(   78) amplitude =  0.9060
    D(    5) --> V(   79) amplitude = -0.3540

 Excited state  80: excitation energy (eV) =     536.5950
 Total energy for state  80:                  -592.09923233 au
    Multiplicity: Singlet
    Trans. Mom.:  0.0029 X  -0.0006 Y  -0.0003 Z
    Strength   :     0.0001197076
    D(    5) --> V(   80) amplitude =  0.9646

 Excited state  81: excitation energy (eV) =     536.9146
 Total energy for state  81:                  -592.08748733 au
    Multiplicity: Singlet
    Trans. Mom.:  0.0104 X   0.0031 Y  -0.0014 Z
    Strength   :     0.0015758707
    D(    5) --> V(   81) amplitude =  0.7235
    D(    5) --> V(   82) amplitude = -0.6602

 Excited state  82: excitation energy (eV) =     537.0072
 Total energy for state  82:                  -592.08408206 au
    Multiplicity: Singlet
    Trans. Mom.: -0.0035 X   0.0072 Y   0.0003 Z
    Strength   :     0.0008416578
    D(    5) --> V(   81) amplitude =  0.6638
    D(    5) --> V(   82) amplitude =  0.7235

 Excited state  83: excitation energy (eV) =     537.1171
 Total energy for state  83:                  -592.08004509 au
    Multiplicity: Singlet
    Trans. Mom.: -0.0069 X  -0.0082 Y  -0.0092 Z
    Strength   :     0.0026348718
    D(    5) --> V(   83) amplitude =  0.9523

 Excited state  84: excitation energy (eV) =     537.4266
 Total energy for state  84:                  -592.06866947 au
    Multiplicity: Singlet
    Trans. Mom.:  0.0006 X   0.0040 Y  -0.0020 Z
    Strength   :     0.0002655915
    D(    5) --> V(   84) amplitude =  0.8583
    D(    5) --> V(   85) amplitude =  0.3228
    D(    5) --> V(   86) amplitude = -0.2762

 Excited state  85: excitation energy (eV) =     537.4505
 Total energy for state  85:                  -592.06779189 au
    Multiplicity: Singlet
    Trans. Mom.:  0.0008 X   0.0125 Y   0.0012 Z
    Strength   :     0.0020760679
    D(    5) --> V(   84) amplitude = -0.3922
    D(    5) --> V(   85) amplitude =  0.8503

 Excited state  86: excitation energy (eV) =     537.5975
 Total energy for state  86:                  -592.06239125 au
    Multiplicity: Singlet
    Trans. Mom.:  0.0042 X  -0.0041 Y  -0.0022 Z
    Strength   :     0.0005184223
    D(    5) --> V(   84) amplitude =  0.2330
    D(    5) --> V(   86) amplitude =  0.9307

 Excited state  87: excitation energy (eV) =     537.9007
 Total energy for state  87:                  -592.05124706 au
    Multiplicity: Singlet
    Trans. Mom.: -0.0005 X  -0.0088 Y  -0.0057 Z
    Strength   :     0.0014433339
    D(    5) --> V(   85) amplitude =  0.2902
    D(    5) --> V(   87) amplitude =  0.5288
    D(    5) --> V(   88) amplitude =  0.6490
    D(    5) --> V(   89) amplitude =  0.2851
    D(    5) --> V(   90) amplitude = -0.2497

 Excited state  88: excitation energy (eV) =     537.9456
 Total energy for state  88:                  -592.04959703 au
    Multiplicity: Singlet
    Trans. Mom.:  0.0075 X  -0.0034 Y  -0.0016 Z
    Strength   :     0.0009320107
    D(    5) --> V(   87) amplitude =  0.2581
    D(    5) --> V(   88) amplitude = -0.5759
    D(    5) --> V(   89) amplitude =  0.7341

 Excited state  89: excitation energy (eV) =     538.0804
 Total energy for state  89:                  -592.04464272 au
    Multiplicity: Singlet
    Trans. Mom.:  0.0012 X  -0.0052 Y  -0.0016 Z
    Strength   :     0.0004159180
    D(    5) --> V(   87) amplitude =  0.7543
    D(    5) --> V(   88) amplitude = -0.3338
    D(    5) --> V(   89) amplitude = -0.5402

 Excited state  90: excitation energy (eV) =     538.3394
 Total energy for state  90:                  -592.03512378 au
    Multiplicity: Singlet
    Trans. Mom.: -0.0016 X   0.0015 Y  -0.0020 Z
    Strength   :     0.0001174099
    D(    5) --> V(   88) amplitude =  0.3046
    D(    5) --> V(   90) amplitude =  0.8452
    D(    5) --> V(   91) amplitude =  0.2871

 Excited state  91: excitation energy (eV) =     538.6101
 Total energy for state  91:                  -592.02517612 au
    Multiplicity: Singlet
    Trans. Mom.:  0.0004 X  -0.0050 Y  -0.0043 Z
    Strength   :     0.0005762341
    D(    5) --> V(   90) amplitude = -0.3594
    D(    5) --> V(   91) amplitude =  0.8623
    D(    5) --> V(   92) amplitude =  0.2450

 Excited state  92: excitation energy (eV) =     538.7721
 Total energy for state  92:                  -592.01922208 au
    Multiplicity: Singlet
    Trans. Mom.: -0.0011 X   0.0009 Y  -0.0020 Z
    Strength   :     0.0000766215
    D(    5) --> V(   91) amplitude = -0.3279
    D(    5) --> V(   92) amplitude =  0.9106

 Excited state  93: excitation energy (eV) =     539.0444
 Total energy for state  93:                  -592.00921603 au
    Multiplicity: Singlet
    Trans. Mom.:  0.0024 X  -0.0018 Y  -0.0055 Z
    Strength   :     0.0005195748
    D(    5) --> V(   93) amplitude =  0.9533

 Excited state  94: excitation energy (eV) =     539.2117
 Total energy for state  94:                  -592.00306890 au
    Multiplicity: Singlet
    Trans. Mom.: -0.0071 X   0.0039 Y  -0.0102 Z
    Strength   :     0.0022365296
    D(    5) --> V(   94) amplitude =  0.9125

 Excited state  95: excitation energy (eV) =     539.5602
 Total energy for state  95:                  -591.99026095 au
    Multiplicity: Singlet
    Trans. Mom.: -0.0009 X   0.0040 Y  -0.0020 Z
    Strength   :     0.0002734432
    D(    5) --> V(   95) amplitude =  0.9606

 Excited state  96: excitation energy (eV) =     539.8393
 Total energy for state  96:                  -591.98000488 au
    Multiplicity: Singlet
    Trans. Mom.: -0.0045 X   0.0017 Y  -0.0016 Z
    Strength   :     0.0003417436
    D(    5) --> V(   94) amplitude =  0.2148
    D(    5) --> V(   96) amplitude =  0.9349

 Excited state  97: excitation energy (eV) =     540.1790
 Total energy for state  97:                  -591.96752228 au
    Multiplicity: Singlet
    Trans. Mom.:  0.0021 X  -0.0063 Y  -0.0024 Z
    Strength   :     0.0006589682
    D(    5) --> V(   97) amplitude =  0.9131

 Excited state  98: excitation energy (eV) =     540.3704
 Total energy for state  98:                  -591.96048798 au
    Multiplicity: Singlet
    Trans. Mom.: -0.0057 X  -0.0017 Y   0.0007 Z
    Strength   :     0.0004798836
    D(    5) --> V(   98) amplitude =  0.9318
    D(    5) --> V(   99) amplitude =  0.2505

 Excited state  99: excitation energy (eV) =     540.4283
 Total energy for state  99:                  -591.95835930 au
    Multiplicity: Singlet
    Trans. Mom.:  0.0051 X  -0.0016 Y   0.0081 Z
    Strength   :     0.0012344895
    D(    5) --> V(   99) amplitude =  0.8937
    D(    5) --> V(  100) amplitude = -0.3411

 Excited state 100: excitation energy (eV) =     540.5693
 Total energy for state 100:                  -591.95317927 au
    Multiplicity: Singlet
    Trans. Mom.:  0.0016 X   0.0004 Y  -0.0035 Z
    Strength   :     0.0001952904
    D(    5) --> V(   99) amplitude =  0.3325
    D(    5) --> V(  100) amplitude =  0.9041

 Excited state 101: excitation energy (eV) =     540.7565
 Total energy for state 101:                  -591.94629921 au
    Multiplicity: Singlet
    Trans. Mom.:  0.0023 X  -0.0005 Y   0.0015 Z
    Strength   :     0.0001004182
    D(    5) --> V(  101) amplitude =  0.8829
    D(    5) --> V(  102) amplitude = -0.3862

 Excited state 102: excitation energy (eV) =     540.8610
 Total energy for state 102:                  -591.94245971 au
    Multiplicity: Singlet
    Trans. Mom.: -0.0049 X  -0.0073 Y  -0.0073 Z
    Strength   :     0.0017414099
    D(    5) --> V(  101) amplitude =  0.3856
    D(    5) --> V(  102) amplitude =  0.8822

 Excited state 103: excitation energy (eV) =     541.1699
 Total energy for state 103:                  -591.93110511 au
    Multiplicity: Singlet
    Trans. Mom.: -0.0036 X   0.0038 Y  -0.0064 Z
    Strength   :     0.0009085362
    D(    5) --> V(  103) amplitude =  0.9769

 Excited state 104: excitation energy (eV) =     541.2733
 Total energy for state 104:                  -591.92730822 au
    Multiplicity: Singlet
    Trans. Mom.: -0.0031 X  -0.0014 Y  -0.0060 Z
    Strength   :     0.0006305390
    D(    5) --> V(  104) amplitude =  0.9620

 Excited state 105: excitation energy (eV) =     541.5055
 Total energy for state 105:                  -591.91877221 au
    Multiplicity: Singlet
    Trans. Mom.: -0.0031 X   0.0003 Y  -0.0020 Z
    Strength   :     0.0001790797
    D(    5) --> V(  105) amplitude =  0.9575

 Excited state 106: excitation energy (eV) =     541.5966
 Total energy for state 106:                  -591.91542649 au
    Multiplicity: Singlet
    Trans. Mom.: -0.0025 X  -0.0039 Y   0.0034 Z
    Strength   :     0.0004266415
    D(    5) --> V(  106) amplitude =  0.8349
    D(    5) --> V(  107) amplitude = -0.5028

 Excited state 107: excitation energy (eV) =     541.7368
 Total energy for state 107:                  -591.91027194 au
    Multiplicity: Singlet
    Trans. Mom.:  0.0007 X  -0.0007 Y  -0.0041 Z
    Strength   :     0.0002372349
    D(    5) --> V(  106) amplitude =  0.5342
    D(    5) --> V(  107) amplitude =  0.8177

 Excited state 108: excitation energy (eV) =     542.1016
 Total energy for state 108:                  -591.89686717 au
    Multiplicity: Singlet
    Trans. Mom.:  0.0022 X   0.0049 Y   0.0074 Z
    Strength   :     0.0011150054
    D(    5) --> V(  108) amplitude =  0.8150
    D(    5) --> V(  109) amplitude =  0.3627
    D(    5) --> V(  110) amplitude =  0.4226

 Excited state 109: excitation energy (eV) =     542.2443
 Total energy for state 109:                  -591.89162221 au
    Multiplicity: Singlet
    Trans. Mom.: -0.0044 X  -0.0008 Y  -0.0079 Z
    Strength   :     0.0010905521
    D(    5) --> V(  109) amplitude =  0.6828
    D(    5) --> V(  110) amplitude = -0.6791

 Excited state 110: excitation energy (eV) =     542.2977
 Total energy for state 110:                  -591.88965980 au
    Multiplicity: Singlet
    Trans. Mom.:  0.0010 X   0.0001 Y   0.0035 Z
    Strength   :     0.0001729223
    D(    5) --> V(  108) amplitude = -0.5526
    D(    5) --> V(  109) amplitude =  0.6011
    D(    5) --> V(  110) amplitude =  0.5421

 Excited state 111: excitation energy (eV) =     542.5473
 Total energy for state 111:                  -591.88048612 au
    Multiplicity: Singlet
    Trans. Mom.:  0.0070 X  -0.0080 Y  -0.0023 Z
    Strength   :     0.0015771749
    D(    5) --> V(  111) amplitude =  0.9224

 Excited state 112: excitation energy (eV) =     542.7954
 Total energy for state 112:                  -591.87137133 au
    Multiplicity: Singlet
    Trans. Mom.: -0.0104 X  -0.0042 Y  -0.0011 Z
    Strength   :     0.0016888816
    D(    5) --> V(  112) amplitude =  0.8039
    D(    5) --> V(  113) amplitude = -0.3081
    D(    5) --> V(  114) amplitude =  0.2838
    D(    5) --> V(  115) amplitude =  0.2969

 Excited state 113: excitation energy (eV) =     542.9303
 Total energy for state 113:                  -591.86641467 au
    Multiplicity: Singlet
    Trans. Mom.:  0.0029 X   0.0017 Y   0.0009 Z
    Strength   :     0.0001607267
    D(    5) --> V(  111) amplitude =  0.2751
    D(    5) --> V(  112) amplitude =  0.4033
    D(    5) --> V(  113) amplitude =  0.8148
    D(    5) --> V(  114) amplitude = -0.2527

 Excited state 114: excitation energy (eV) =     543.0250
 Total energy for state 114:                  -591.86293166 au
    Multiplicity: Singlet
    Trans. Mom.: -0.0042 X   0.0053 Y   0.0102 Z
    Strength   :     0.0019780781
    D(    5) --> V(  114) amplitude = -0.6606
    D(    5) --> V(  115) amplitude =  0.7050

 Excited state 115: excitation energy (eV) =     543.1254
 Total energy for state 115:                  -591.85924154 au
    Multiplicity: Singlet
    Trans. Mom.: -0.0009 X   0.0014 Y  -0.0007 Z
    Strength   :     0.0000458519
    D(    5) --> V(  112) amplitude = -0.3378
    D(    5) --> V(  113) amplitude =  0.4012
    D(    5) --> V(  114) amplitude =  0.6038
    D(    5) --> V(  115) amplitude =  0.5342

 Excited state 116: excitation energy (eV) =     543.5028
 Total energy for state 116:                  -591.84537236 au
    Multiplicity: Singlet
    Trans. Mom.:  0.0005 X  -0.0010 Y   0.0035 Z
    Strength   :     0.0001782191
    D(    5) --> V(  115) amplitude = -0.2566
    D(    5) --> V(  116) amplitude =  0.9119
    D(    5) --> V(  117) amplitude =  0.2534

 Excited state 117: excitation energy (eV) =     543.7662
 Total energy for state 117:                  -591.83569425 au
    Multiplicity: Singlet
    Trans. Mom.:  0.0018 X  -0.0000 Y   0.0071 Z
    Strength   :     0.0007160982
    D(    5) --> V(  116) amplitude = -0.2552
    D(    5) --> V(  117) amplitude =  0.9512

 Excited state 118: excitation energy (eV) =     544.1172
 Total energy for state 118:                  -591.82279443 au
    Multiplicity: Singlet
    Trans. Mom.: -0.0010 X   0.0009 Y   0.0044 Z
    Strength   :     0.0002791617
    D(    5) --> V(  118) amplitude =  0.8587
    D(    5) --> V(  119) amplitude =  0.4545

 Excited state 119: excitation energy (eV) =     544.3917
 Total energy for state 119:                  -591.81270562 au
    Multiplicity: Singlet
    Trans. Mom.:  0.0014 X  -0.0022 Y   0.0030 Z
    Strength   :     0.0002091226
    D(    5) --> V(  118) amplitude = -0.4813
    D(    5) --> V(  119) amplitude =  0.8504

 Excited state 120: excitation energy (eV) =     544.6338
 Total energy for state 120:                  -591.80381143 au
    Multiplicity: Singlet
    Trans. Mom.: -0.0032 X   0.0071 Y   0.0016 Z
    Strength   :     0.0008452906
    D(    5) --> V(  119) amplitude =  0.2152
    D(    5) --> V(  120) amplitude =  0.8443
    D(    5) --> V(  121) amplitude =  0.4346

 Excited state 121: excitation energy (eV) =     544.6854
 Total energy for state 121:                  -591.80191336 au
    Multiplicity: Singlet
    Trans. Mom.: -0.0061 X   0.0061 Y   0.0085 Z
    Strength   :     0.0019667422
    D(    5) --> V(  120) amplitude = -0.4703
    D(    5) --> V(  121) amplitude =  0.8172
    D(    5) --> V(  122) amplitude =  0.2432

 Excited state 122: excitation energy (eV) =     544.9319
 Total energy for state 122:                  -591.79285567 au
    Multiplicity: Singlet
    Trans. Mom.:  0.0036 X  -0.0033 Y   0.0077 Z
    Strength   :     0.0011046002
    D(    5) --> V(  121) amplitude = -0.2971
    D(    5) --> V(  122) amplitude =  0.9414

 Excited state 123: excitation energy (eV) =     545.4436
 Total energy for state 123:                  -591.77405095 au
    Multiplicity: Singlet
    Trans. Mom.: -0.0033 X   0.0095 Y  -0.0025 Z
    Strength   :     0.0014451112
    D(    5) --> V(  123) amplitude =  0.9771

 Excited state 124: excitation energy (eV) =     545.8940
 Total energy for state 124:                  -591.75750008 au
    Multiplicity: Singlet
    Trans. Mom.: -0.0057 X   0.0007 Y   0.0018 Z
    Strength   :     0.0004881402
    D(    5) --> V(  124) amplitude =  0.9512
    D(    5) --> V(  125) amplitude = -0.2749

 Excited state 125: excitation energy (eV) =     546.0128
 Total energy for state 125:                  -591.75313177 au
    Multiplicity: Singlet
    Trans. Mom.: -0.0088 X  -0.0001 Y   0.0032 Z
    Strength   :     0.0011761531
    D(    5) --> V(  124) amplitude =  0.2542
    D(    5) --> V(  125) amplitude =  0.9315

 Excited state 126: excitation energy (eV) =     546.3817
 Total energy for state 126:                  -591.73957450 au
    Multiplicity: Singlet
    Trans. Mom.: -0.0040 X  -0.0012 Y   0.0025 Z
    Strength   :     0.0003210011
    D(    5) --> V(  126) amplitude =  0.9268
    D(    5) --> V(  127) amplitude =  0.2822

 Excited state 127: excitation energy (eV) =     546.5024
 Total energy for state 127:                  -591.73513905 au
    Multiplicity: Singlet
    Trans. Mom.: -0.0083 X  -0.0025 Y  -0.0070 Z
    Strength   :     0.0016774066
    D(    5) --> V(  126) amplitude = -0.3131
    D(    5) --> V(  127) amplitude =  0.8957

 Excited state 128: excitation energy (eV) =     546.7879
 Total energy for state 128:                  -591.72464997 au
    Multiplicity: Singlet
    Trans. Mom.:  0.0021 X   0.0079 Y   0.0001 Z
    Strength   :     0.0009014006
    D(    5) --> V(  127) amplitude =  0.2415
    D(    5) --> V(  128) amplitude =  0.6467
    D(    5) --> V(  129) amplitude =  0.6416
    D(    5) --> V(  130) amplitude = -0.2800

 Excited state 129: excitation energy (eV) =     546.8424
 Total energy for state 129:                  -591.72264618 au
    Multiplicity: Singlet
    Trans. Mom.: -0.0010 X  -0.0046 Y  -0.0035 Z
    Strength   :     0.0004631580
    D(    5) --> V(  128) amplitude =  0.7221
    D(    5) --> V(  129) amplitude = -0.5139
    D(    5) --> V(  130) amplitude =  0.4248

 Excited state 130: excitation energy (eV) =     547.0439
 Total energy for state 130:                  -591.71524174 au
    Multiplicity: Singlet
    Trans. Mom.: -0.0009 X  -0.0023 Y  -0.0036 Z
    Strength   :     0.0002573972
    D(    5) --> V(  129) amplitude =  0.5327
    D(    5) --> V(  130) amplitude =  0.8005

 Excited state 131: excitation energy (eV) =     547.3953
 Total energy for state 131:                  -591.70232776 au
    Multiplicity: Singlet
    Trans. Mom.:  0.0063 X  -0.0002 Y   0.0013 Z
    Strength   :     0.0005624249
    D(    5) --> V(  131) amplitude =  0.9799

 Excited state 132: excitation energy (eV) =     547.6988
 Total energy for state 132:                  -591.69117461 au
    Multiplicity: Singlet
    Trans. Mom.: -0.0004 X  -0.0067 Y  -0.0067 Z
    Strength   :     0.0011901361
    D(    5) --> V(  132) amplitude =  0.8811
    D(    5) --> V(  134) amplitude =  0.3610

 Excited state 133: excitation energy (eV) =     547.8787
 Total energy for state 133:                  -591.68456090 au
    Multiplicity: Singlet
    Trans. Mom.: -0.0042 X   0.0017 Y  -0.0007 Z
    Strength   :     0.0002759712
    D(    5) --> V(  132) amplitude = -0.4429
    D(    5) --> V(  134) amplitude =  0.7568
    D(    5) --> V(  135) amplitude = -0.3228

 Excited state 134: excitation energy (eV) =     547.9142
 Total energy for state 134:                  -591.68325727 au
    Multiplicity: Singlet
    Trans. Mom.: -0.0033 X   0.0076 Y   0.0012 Z
    Strength   :     0.0009461880
    D(    5) --> V(  133) amplitude =  0.9256
    D(    5) --> V(  135) amplitude = -0.2722

 Excited state 135: excitation energy (eV) =     548.2984
 Total energy for state 135:                  -591.66913826 au
    Multiplicity: Singlet
    Trans. Mom.: -0.0015 X  -0.0044 Y   0.0042 Z
    Strength   :     0.0005178225
    D(    5) --> V(  134) amplitude =  0.4448
    D(    5) --> V(  135) amplitude =  0.8404

 Excited state 136: excitation energy (eV) =     548.5694
 Total energy for state 136:                  -591.65917803 au
    Multiplicity: Singlet
    Trans. Mom.: -0.0090 X   0.0073 Y  -0.0044 Z
    Strength   :     0.0020729068
    D(    5) --> V(  136) amplitude =  0.9208
    D(    5) --> V(  137) amplitude =  0.2358

 Excited state 137: excitation energy (eV) =     548.7715
 Total energy for state 137:                  -591.65175257 au
    Multiplicity: Singlet
    Trans. Mom.: -0.0126 X  -0.0042 Y   0.0001 Z
    Strength   :     0.0023779878
    D(    5) --> V(  136) amplitude = -0.2831
    D(    5) --> V(  137) amplitude =  0.8027
    D(    5) --> V(  138) amplitude =  0.4809

 Excited state 138: excitation energy (eV) =     548.8684
 Total energy for state 138:                  -591.64819260 au
    Multiplicity: Singlet
    Trans. Mom.: -0.0029 X   0.0003 Y   0.0007 Z
    Strength   :     0.0001182092
    D(    5) --> V(  137) amplitude = -0.4323
    D(    5) --> V(  138) amplitude =  0.7942

 Excited state 139: excitation energy (eV) =     549.1181
 Total energy for state 139:                  -591.63901528 au
    Multiplicity: Singlet
    Trans. Mom.:  0.0044 X   0.0108 Y   0.0024 Z
    Strength   :     0.0019148606
    D(    5) --> V(  138) amplitude = -0.2161
    D(    5) --> V(  139) amplitude =  0.8786
    D(    5) --> V(  141) amplitude =  0.2294

 Excited state 140: excitation energy (eV) =     549.3760
 Total energy for state 140:                  -591.62953853 au
    Multiplicity: Singlet
    Trans. Mom.:  0.0033 X  -0.0073 Y  -0.0077 Z
    Strength   :     0.0016547865
    D(    5) --> V(  139) amplitude =  0.3594
    D(    5) --> V(  140) amplitude =  0.6995
    D(    5) --> V(  141) amplitude = -0.5119
    D(    5) --> V(  143) amplitude =  0.2487

 Excited state 141: excitation energy (eV) =     549.5269
 Total energy for state 141:                  -591.62399334 au
    Multiplicity: Singlet
    Trans. Mom.:  0.0019 X  -0.0017 Y   0.0025 Z
    Strength   :     0.0001725257
    D(    5) --> V(  140) amplitude =  0.6038
    D(    5) --> V(  141) amplitude =  0.7816

 Excited state 142: excitation energy (eV) =     549.6544
 Total energy for state 142:                  -591.61930513 au
    Multiplicity: Singlet
    Trans. Mom.: -0.0058 X   0.0131 Y   0.0036 Z
    Strength   :     0.0029357036
    D(    5) --> V(  142) amplitude =  0.6842
    D(    5) --> V(  143) amplitude = -0.6295

 Excited state 143: excitation energy (eV) =     549.9116
 Total energy for state 143:                  -591.60985502 au
    Multiplicity: Singlet
    Trans. Mom.:  0.0022 X  -0.0126 Y  -0.0062 Z
    Strength   :     0.0027345732
    D(    5) --> V(  142) amplitude =  0.6551
    D(    5) --> V(  143) amplitude =  0.6828

 Excited state 144: excitation energy (eV) =     550.1736
 Total energy for state 144:                  -591.60022569 au
    Multiplicity: Singlet
    Trans. Mom.:  0.0042 X  -0.0043 Y  -0.0036 Z
    Strength   :     0.0006579134
    D(    5) --> V(  144) amplitude =  0.9661

 Excited state 145: excitation energy (eV) =     550.3745
 Total energy for state 145:                  -591.59284309 au
    Multiplicity: Singlet
    Trans. Mom.: -0.0016 X   0.0018 Y  -0.0051 Z
    Strength   :     0.0004370905
    D(    5) --> V(  145) amplitude =  0.9213
    D(    5) --> V(  146) amplitude =  0.3295

 Excited state 146: excitation energy (eV) =     550.7191
 Total energy for state 146:                  -591.58017968 au
    Multiplicity: Singlet
    Trans. Mom.: -0.0097 X   0.0008 Y  -0.0125 Z
    Strength   :     0.0034100599
    D(    5) --> V(  145) amplitude = -0.3367
    D(    5) --> V(  146) amplitude =  0.9046

 Excited state 147: excitation energy (eV) =     550.8767
 Total energy for state 147:                  -591.57438737 au
    Multiplicity: Singlet
    Trans. Mom.: -0.0015 X   0.0036 Y  -0.0030 Z
    Strength   :     0.0003204651
    D(    5) --> V(  147) amplitude =  0.9439

 Excited state 148: excitation energy (eV) =     551.2459
 Total energy for state 148:                  -591.56082189 au
    Multiplicity: Singlet
    Trans. Mom.:  0.0024 X   0.0026 Y  -0.0018 Z
    Strength   :     0.0002172606
    D(    5) --> V(  148) amplitude =  0.9484
    D(    5) --> V(  149) amplitude =  0.2596

 Excited state 149: excitation energy (eV) =     551.2794
 Total energy for state 149:                  -591.55958744 au
    Multiplicity: Singlet
    Trans. Mom.:  0.0064 X   0.0052 Y   0.0004 Z
    Strength   :     0.0009148084
    D(    5) --> V(  148) amplitude = -0.2597
    D(    5) --> V(  149) amplitude =  0.8888
    D(    5) --> V(  150) amplitude =  0.3092

 Excited state 150: excitation energy (eV) =     551.4857
 Total energy for state 150:                  -591.55200651 au
    Multiplicity: Singlet
    Trans. Mom.:  0.0117 X   0.0081 Y  -0.0088 Z
    Strength   :     0.0037883638
    D(    5) --> V(  149) amplitude = -0.3162
    D(    5) --> V(  150) amplitude =  0.8935

 ---------------------------------------------------
  SETman timing summary (seconds)
  CPU time           1218368.68s
  System time              0.03s
  Wall time          1218763.11s
================================================================================
                             Excited State Analysis
================================================================================

  Ground State (Reference) :
  -------------------------
    NOs
      Occupation of frontier NOs:
         0.0000   0.0000   2.0000   2.0000
      Number of electrons: 80.000000
      Number of unpaired electrons: n_u =  0.00000, n_u,nl =  0.00000
    
    Mulliken Population Analysis (State DM)
    Atom      Charge (e)
    --------------------
     1 O       -0.667451
     2 H        0.340149
     3 H        0.313664
     4 O       -0.664234
     5 H        0.321250
     6 H        0.353033
     7 O       -0.724165
     8 H        0.380488
     9 H        0.334662
    10 O       -0.654649
    11 H        0.307974
    12 H        0.360493
    13 O       -0.630947
    14 H        0.316399
    15 H        0.345674
    16 O       -0.608433
    17 H        0.300687
    18 H        0.319959
    19 O       -0.755307
    20 H        0.347328
    21 H        0.380988
    22 O       -0.672915
    23 H        0.276443
    24 H        0.378909
    --------------------
    Sum:        0.000000
    
    Multipole moment analysis of the density matrix
      Molecular charge:                      0.000000
      Number of electrons:                   80.000000
        Center of electronic charge [Ang]: [ -0.002005,   0.000467,   0.000473]
      Total nuclear charge:                  80.000000
        Center of nuclear charge [Ang]:    [ -0.011409,   0.007949,   0.005275]
      Dipole moment [D]:                     4.972659
        Cartesian components [D]:          [ -3.613628,   2.874732,   1.845252]
      RMS size of the density [Ang]:         3.185853
        Cartesian components [Ang]:        [  2.075680,   1.760447,   1.655911]
    

  ----------------------------------------------------------------------------
                  Analysis of Unrelaxed Density Matrices
  ----------------------------------------------------------------------------

  Singlet 1 :
  -------------------------
    NOs
      Occupation of frontier NOs:
         0.0000   1.0000   1.0000   2.0000
      Number of electrons: 80.000000
      Number of unpaired electrons: n_u =  2.00000, n_u,nl =  2.00000
      NO participation ratio (PR_NO):  2.000000
    
    NDOs
      Leading detachment eigenvalues:
        -1.0000  -0.0000
      Leading attachment eigenvalues:
         1.0000   0.0000
      Number of detached / attached electrons: p_D =  1.0000, p_A =  1.0000
      Number of involved orbitals: PR_D =  1.000000, PR_A =  1.000000
    
    Mulliken Population Analysis (State/Difference DM)
    Atom      Charge (e)              h+              e-           Del q
    --------------------------------------------------------------------
     1 O        0.289250        0.991273       -0.034573        0.956700
     2 H        0.370125        0.004179        0.025796        0.029975
     3 H        0.089941        0.004546       -0.228269       -0.223722
     4 O       -0.657226       -0.000000        0.007008        0.007008
     5 H        0.279738       -0.000000       -0.041512       -0.041512
     6 H        0.313550        0.000000       -0.039483       -0.039483
     7 O       -0.732782       -0.000000       -0.008617       -0.008617
     8 H        0.390735        0.000000        0.010247        0.010247
     9 H        0.328682        0.000000       -0.005980       -0.005980
    10 O       -0.660328       -0.000003       -0.005676       -0.005679
    11 H        0.284357       -0.000000       -0.023617       -0.023617
    12 H        0.314984        0.000001       -0.045510       -0.045509
    13 O       -0.560051        0.000002        0.070894        0.070896
    14 H        0.082586        0.000000       -0.233814       -0.233814
    15 H        0.223782        0.000000       -0.121892       -0.121892
    16 O       -0.586317        0.000000        0.022116        0.022116
    17 H        0.047544       -0.000000       -0.253143       -0.253143
    18 H        0.245332        0.000000       -0.074627       -0.074627
    19 O       -0.774180        0.000000       -0.018873       -0.018873
    20 H        0.401615       -0.000001        0.054288        0.054287
    21 H        0.348236        0.000000       -0.032752       -0.032752
    22 O       -0.657307       -0.000000        0.015608        0.015608
    23 H        0.213762       -0.000000       -0.062680       -0.062680
    24 H        0.403972        0.000000        0.025063        0.025063
    --------------------------------------------------------------------
    Sum:        0.000000        1.000000       -1.000000        0.000000
    
    Multipole moment analysis of the density matrix
      Molecular charge:                      0.000000
      Number of electrons:                   80.000000
        Center of electronic charge [Ang]: [ -0.010357,   0.013806,  -0.002168]
      Total nuclear charge:                  80.000000
        Center of nuclear charge [Ang]:    [ -0.011409,   0.007949,   0.005275]
      Dipole moment [D]:                     3.661541
        Cartesian components [D]:          [ -0.404165,  -2.250520,   2.859841]
      RMS size of the density [Ang]:         3.213168
        Cartesian components [Ang]:        [  2.088091,   1.782171,   1.669788]
    
    Exciton analysis of the difference density matrix
      <r_h> [Ang]:                  [ -0.187160,   0.408031,   0.835305]
      <r_e> [Ang]:                  [ -0.855352,   1.475080,   0.624073]
      |<r_e - r_h>| [Ang]:            1.276594
      Hole size [Ang]:                0.122780
        Cartesian components [Ang]: [  0.070885,   0.070886,   0.070891]
      Electron size [Ang]:            3.409410
        Cartesian components [Ang]: [  1.857614,   2.041478,   2.001428]

  Singlet 2 :
  -------------------------
    NOs
      Occupation of frontier NOs:
         0.0000   1.0000   1.0000   2.0000
      Number of electrons: 80.000000
      Number of unpaired electrons: n_u =  2.00000, n_u,nl =  2.00000
      NO participation ratio (PR_NO):  2.000000
    
    NDOs
      Leading detachment eigenvalues:
        -1.0000  -0.0000
      Leading attachment eigenvalues:
         1.0000   0.0000
      Number of detached / attached electrons: p_D =  1.0000, p_A =  1.0000
      Number of involved orbitals: PR_D =  1.000000, PR_A =  1.000000
    
    Mulliken Population Analysis (State/Difference DM)
    Atom      Charge (e)              h+              e-           Del q
    --------------------------------------------------------------------
     1 O        0.305462        0.991273       -0.018360        0.972913
     2 H        0.355742        0.004179        0.011413        0.015592
     3 H        0.333021        0.004546        0.014811        0.019357
     4 O       -0.657334       -0.000000        0.006900        0.006900
     5 H        0.250255       -0.000000       -0.070995       -0.070995
     6 H        0.298719        0.000000       -0.054314       -0.054314
     7 O       -0.721589       -0.000000        0.002577        0.002576
     8 H        0.382894        0.000000        0.002406        0.002406
     9 H        0.324258        0.000000       -0.010404       -0.010404
    10 O       -0.655570       -0.000003       -0.000918       -0.000921
    11 H        0.256527       -0.000000       -0.051447       -0.051447
    12 H        0.349222        0.000001       -0.011273       -0.011272
    13 O       -0.553722        0.000002        0.077223        0.077226
    14 H       -0.076314        0.000000       -0.392713       -0.392713
    15 H        0.048267        0.000000       -0.297408       -0.297408
    16 O       -0.614352        0.000000       -0.005919       -0.005919
    17 H        0.254735       -0.000000       -0.045952       -0.045952
    18 H        0.200999        0.000000       -0.118960       -0.118960
    19 O       -0.782287        0.000000       -0.026981       -0.026980
    20 H        0.424426       -0.000001        0.077098        0.077097
    21 H        0.364620        0.000000       -0.016368       -0.016367
    22 O       -0.640122       -0.000000        0.032793        0.032793
    23 H        0.157924       -0.000000       -0.118518       -0.118518
    24 H        0.394218        0.000000        0.015308        0.015309
    --------------------------------------------------------------------
    Sum:        0.000000        1.000000       -1.000000        0.000000
    
    Multipole moment analysis of the density matrix
      Molecular charge:                      0.000000
      Number of electrons:                   80.000000
        Center of electronic charge [Ang]: [ -0.003676,   0.015862,   0.003982]
      Total nuclear charge:                  80.000000
        Center of nuclear charge [Ang]:    [ -0.011409,   0.007949,   0.005275]
      Dipole moment [D]:                     4.280639
        Cartesian components [D]:          [ -2.971641,  -3.040812,   0.496674]
      RMS size of the density [Ang]:         3.223992
        Cartesian components [Ang]:        [  2.088057,   1.790843,   1.681375]
    
    Exciton analysis of the difference density matrix
      <r_h> [Ang]:                  [ -0.187160,   0.408031,   0.835305]
      <r_e> [Ang]:                  [ -0.320818,   1.639614,   1.116071]
      |<r_e - r_h>| [Ang]:            1.270232
      Hole size [Ang]:                0.122780
        Cartesian components [Ang]: [  0.070885,   0.070886,   0.070891]
      Electron size [Ang]:            4.056666
        Cartesian components [Ang]: [  2.015125,   2.477701,   2.501361]

  Singlet 3 :
  -------------------------
    NOs
      Occupation of frontier NOs:
         0.0000   1.0000   1.0000   2.0000
      Number of electrons: 80.000000
      Number of unpaired electrons: n_u =  2.00000, n_u,nl =  2.00000
      NO participation ratio (PR_NO):  2.000000
    
    NDOs
      Leading detachment eigenvalues:
        -1.0000  -0.0000
      Leading attachment eigenvalues:
         1.0000   0.0000
      Number of detached / attached electrons: p_D =  1.0000, p_A =  1.0000
      Number of involved orbitals: PR_D =  1.000000, PR_A =  1.000000
    
    Mulliken Population Analysis (State/Difference DM)
    Atom      Charge (e)              h+              e-           Del q
    --------------------------------------------------------------------
     1 O        0.311464        0.991273       -0.012358        0.978915
     2 H        0.348522        0.004179        0.004194        0.008373
     3 H        0.321667        0.004546        0.003457        0.008003
     4 O       -0.661278       -0.000000        0.002956        0.002956
     5 H        0.186079       -0.000000       -0.135171       -0.135171
     6 H        0.361334        0.000000        0.008301        0.008301
     7 O       -0.730621       -0.000000       -0.006456       -0.006456
     8 H        0.441840        0.000000        0.061352        0.061352
     9 H        0.256252        0.000000       -0.078410       -0.078410
    10 O       -0.662807       -0.000003       -0.008155       -0.008158
    11 H        0.039989       -0.000000       -0.267985       -0.267985
    12 H        0.243935        0.000001       -0.116559       -0.116558
    13 O       -0.644481        0.000002       -0.013536       -0.013533
    14 H        0.316439        0.000000        0.000040        0.000040
[...]
1234  O 7   d 2     -0.00024  -0.00002  -0.00010
1235  O 7   d 3      0.00021  -0.00028   0.00074
1236  O 7   d 4     -0.00012  -0.00022   0.00094
1237  O 7   d 5     -0.00008   0.00031  -0.00035
1238  O 7   d 1      0.00248   0.00139  -0.00601
1239  O 7   d 2     -0.00269   0.00078  -0.00240
1240  O 7   d 3     -0.00022   0.00325  -0.00614
1241  O 7   d 4      0.00323   0.00092  -0.00621
1242  O 7   d 5     -0.00004  -0.00314   0.00478
1243  O 7   d 1      0.00293   0.01582  -0.03335
1244  O 7   d 2     -0.00524   0.01077  -0.01014
1245  O 7   d 3      0.00232   0.01799  -0.02852
1246  O 7   d 4      0.00861   0.01619  -0.02961
1247  O 7   d 5      0.00010  -0.02166   0.02038
1248  O 7   f 1      0.00006   0.00005  -0.00008
1249  O 7   f 2     -0.00001  -0.00002   0.00007
1250  O 7   f 3     -0.00002  -0.00003  -0.00005
1251  O 7   f 4      0.00000   0.00002   0.00000
1252  O 7   f 5     -0.00001   0.00002   0.00000
1253  O 7   f 6      0.00003   0.00004  -0.00001
1254  O 7   f 7     -0.00003  -0.00000   0.00002
1255  O 7   f 1     -0.00059  -0.00033   0.00054
1256  O 7   f 2      0.00026   0.00014  -0.00031
1257  O 7   f 3      0.00020   0.00019   0.00032
1258  O 7   f 4      0.00012  -0.00013  -0.00009
1259  O 7   f 5      0.00003  -0.00019   0.00017
1260  O 7   f 6     -0.00042  -0.00033   0.00007
1261  O 7   f 7      0.00016   0.00007  -0.00027
1262  O 7   f 1      0.00052  -0.00370   0.00837
1263  O 7   f 2     -0.00255   0.00111  -0.00536
1264  O 7   f 3     -0.00073  -0.00231   0.00417
1265  O 7   f 4      0.00059   0.00229  -0.00382
1266  O 7   f 5     -0.00071  -0.00333   0.00428
1267  O 7   f 6     -0.00127  -0.00095   0.00262
1268  O 7   f 7      0.00158   0.00271   0.00145
1269  O 7   g 1      0.00007  -0.00002   0.00007
1270  O 7   g 2     -0.00004   0.00003  -0.00006
1271  O 7   g 3     -0.00005  -0.00003  -0.00000
1272  O 7   g 4      0.00001  -0.00003   0.00010
1273  O 7   g 5      0.00002   0.00003  -0.00002
1274  O 7   g 6     -0.00003   0.00003  -0.00003
1275  O 7   g 7      0.00001   0.00002  -0.00003
1276  O 7   g 8      0.00003   0.00002   0.00002
1277  O 7   g 9      0.00002   0.00002   0.00004
1278  O 7   g 1     -0.00053   0.00072  -0.00146
1279  O 7   g 2      0.00038  -0.00033   0.00096
1280  O 7   g 3      0.00056  -0.00002   0.00006
1281  O 7   g 4     -0.00006   0.00050  -0.00140
1282  O 7   g 5     -0.00011  -0.00027   0.00018
1283  O 7   g 6      0.00013  -0.00045   0.00065
1284  O 7   g 7     -0.00007   0.00007   0.00026
1285  O 7   g 8     -0.00041   0.00026  -0.00050
1286  O 7   g 9     -0.00030  -0.00029  -0.00036
1287  O 7   h 1      0.00007  -0.00007   0.00011
1288  O 7   h 2      0.00002   0.00003  -0.00003
1289  O 7   h 3     -0.00003   0.00000  -0.00000
1290  O 7   h 4      0.00001  -0.00005   0.00014
1291  O 7   h 5      0.00004  -0.00004   0.00009
1292  O 7   h 6      0.00006  -0.00003   0.00003
1293  O 7   h 7      0.00002   0.00001   0.00004
1294  O 7   h 8     -0.00003   0.00008  -0.00014
1295  O 7   h 9      0.00009  -0.00002   0.00005
1296  O 7   h10      0.00002   0.00001  -0.00006
1297  O 7   h11      0.00001   0.00002   0.00003
1298  H 13  s       -0.00079   0.00109  -0.00102
1299  H 13  s       -0.00489   0.00021   0.00071
1300  H 13  s        0.00541   0.07982  -0.12801
1301  H 13  s        0.10998   0.08984  -0.15745
1302  H 13  s       -0.03609   0.18346  -0.23183
1303  H 13  px       0.00044  -0.00031   0.00045
1304  H 13  py      -0.00015   0.00022  -0.00018
1305  H 13  pz      -0.00018   0.00021  -0.00021
1306  H 13  px      -0.00249   0.00114  -0.00191
1307  H 13  py       0.00070  -0.00053   0.00088
1308  H 13  pz       0.00055  -0.00035   0.00091
1309  H 13  px       0.01783   0.01225  -0.02894
1310  H 13  py      -0.00850  -0.00507   0.00644
1311  H 13  pz      -0.00545  -0.00380   0.00556
1312  H 13  px       0.02173   0.05161  -0.08333
1313  H 13  py      -0.01432  -0.02558   0.01613
1314  H 13  pz      -0.00501  -0.01775   0.02053
1315  H 13  d 1      0.00012   0.00019  -0.00024
1316  H 13  d 2      0.00003  -0.00003   0.00008
1317  H 13  d 3     -0.00011   0.00005   0.00010
1318  H 13  d 4      0.00006   0.00018  -0.00024
1319  H 13  d 5     -0.00008  -0.00006   0.00017
1320  H 13  d 1     -0.00099  -0.00207   0.00317
1321  H 13  d 2      0.00005   0.00063  -0.00095
1322  H 13  d 3      0.00028  -0.00097   0.00131
1323  H 13  d 4     -0.00048  -0.00169   0.00278
1324  H 13  d 5      0.00044   0.00136  -0.00360
1325  H 13  d 1     -0.00989   0.00052  -0.00578
1326  H 13  d 2      0.00290   0.00018   0.00499
1327  H 13  d 3     -0.00901   0.00044   0.00608
1328  H 13  d 4     -0.00462   0.00071  -0.00397
1329  H 13  d 5      0.00676  -0.00099  -0.00756
1330  H 13  f 1      0.00003  -0.00014   0.00029
1331  H 13  f 2      0.00006   0.00006  -0.00017
1332  H 13  f 3     -0.00001   0.00001  -0.00009
1333  H 13  f 4     -0.00001   0.00007  -0.00020
1334  H 13  f 5      0.00002  -0.00009   0.00011
1335  H 13  f 6     -0.00001  -0.00005   0.00020
1336  H 13  f 7     -0.00000   0.00010  -0.00010
1337  H 13  f 1     -0.00182  -0.00030   0.00015
1338  H 13  f 2      0.00060   0.00058   0.00073
1339  H 13  f 3      0.00054   0.00011  -0.00010
1340  H 13  f 4      0.00082   0.00027   0.00021
1341  H 13  f 5     -0.00125   0.00021   0.00108
1342  H 13  f 6     -0.00046  -0.00025   0.00028
1343  H 13  f 7      0.00039  -0.00048  -0.00173
1344  H 13  g 1     -0.00010  -0.00003   0.00010
1345  H 13  g 2      0.00006   0.00008   0.00000
1346  H 13  g 3      0.00005  -0.00000  -0.00007
1347  H 13  g 4     -0.00004  -0.00003  -0.00000
1348  H 13  g 5      0.00006  -0.00000  -0.00006
1349  H 13  g 6      0.00007   0.00003  -0.00005
1350  H 13  g 7     -0.00007   0.00001   0.00007
1351  H 13  g 8      0.00000   0.00001   0.00009
1352  H 13  g 9      0.00001  -0.00003  -0.00011
1353  H 14  s       -0.00095   0.00138  -0.00089
1354  H 14  s       -0.00382   0.00144  -0.00361
1355  H 14  s       -0.00301  -0.01248   0.03740
1356  H 14  s        0.08132  -0.08548   0.21993
1357  H 14  s       -0.13322  -0.01849  -0.05849
1358  H 14  px       0.00009  -0.00020   0.00050
1359  H 14  py       0.00044  -0.00043   0.00079
1360  H 14  pz       0.00036  -0.00042   0.00070
1361  H 14  px      -0.00066   0.00084  -0.00213
1362  H 14  py      -0.00133   0.00060  -0.00257
1363  H 14  pz      -0.00100   0.00044  -0.00176
1364  H 14  px       0.00681  -0.00530   0.01566
1365  H 14  py       0.01069  -0.01482   0.03623
1366  H 14  pz       0.01009  -0.00923   0.02004
1367  H 14  px       0.01718  -0.00600   0.00532
1368  H 14  py       0.01640  -0.01975   0.05837
1369  H 14  pz       0.01855   0.00033   0.01316
1370  H 14  d 1     -0.00001  -0.00021   0.00006
1371  H 14  d 2      0.00001  -0.00008   0.00013
1372  H 14  d 3     -0.00006  -0.00003   0.00003
1373  H 14  d 4     -0.00007  -0.00013   0.00012
1374  H 14  d 5      0.00000  -0.00002   0.00007
1375  H 14  d 1      0.00040   0.00075   0.00070
1376  H 14  d 2      0.00017   0.00003   0.00070
1377  H 14  d 3      0.00031   0.00049  -0.00102
1378  H 14  d 4      0.00067   0.00057  -0.00002
1379  H 14  d 5      0.00011   0.00045  -0.00134
1380  H 14  d 1      0.00770  -0.00617   0.01134
1381  H 14  d 2      0.00815  -0.00203   0.01436
1382  H 14  d 3      0.00026   0.00365  -0.00891
1383  H 14  d 4      0.00554  -0.00319   0.00656
1384  H 14  d 5     -0.00199   0.00346  -0.01328
1385  H 14  f 1      0.00000  -0.00001   0.00003
1386  H 14  f 2      0.00001  -0.00002   0.00015
1387  H 14  f 3     -0.00001  -0.00003   0.00005
1388  H 14  f 4      0.00001   0.00004  -0.00011
1389  H 14  f 5     -0.00000  -0.00001   0.00012
1390  H 14  f 6      0.00003   0.00003  -0.00007
1391  H 14  f 7      0.00002  -0.00001  -0.00010
1392  H 14  f 1      0.00052   0.00022  -0.00126
1393  H 14  f 2      0.00157  -0.00015   0.00114
1394  H 14  f 3      0.00060   0.00110  -0.00153
1395  H 14  f 4     -0.00068   0.00040  -0.00208
1396  H 14  f 5      0.00036   0.00043  -0.00092
1397  H 14  f 6     -0.00037  -0.00007  -0.00152
1398  H 14  f 7     -0.00118   0.00042  -0.00142
1399  H 14  g 1     -0.00006   0.00002  -0.00011
1400  H 14  g 2      0.00006  -0.00002  -0.00009
1401  H 14  g 3      0.00007   0.00003  -0.00001
1402  H 14  g 4     -0.00002   0.00009  -0.00025
1403  H 14  g 5     -0.00005  -0.00002  -0.00005
1404  H 14  g 6     -0.00003   0.00004  -0.00009
1405  H 14  g 7     -0.00001  -0.00004   0.00003
1406  H 14  g 8     -0.00012   0.00003  -0.00015
1407  H 14  g 9     -0.00007   0.00001   0.00003
1408  O 8   s       -0.00077  -0.00009   0.00194
1409  O 8   s        0.01740   0.00558  -0.04635
1410  O 8   s       -0.00111  -0.00014  -0.00040
1411  O 8   s        0.03587   0.00486  -0.03080
1412  O 8   s       -0.00933   0.06264  -0.21220
1413  O 8   s       -0.18434   0.06933  -0.72896
1414  O 8   px       0.01337   0.00198  -0.00748
1415  O 8   py      -0.00796  -0.00329  -0.00157
1416  O 8   pz      -0.00530   0.01238   0.02921
1417  O 8   px       0.02413   0.00222  -0.00787
1418  O 8   py      -0.01266  -0.00541  -0.00236
1419  O 8   pz      -0.00658   0.02278   0.04557
1420  O 8   px       0.02436   0.01053  -0.03774
1421  O 8   py      -0.02250  -0.00918  -0.00611
1422  O 8   pz      -0.02724   0.01490   0.08284
1423  O 8   px      -0.05661   0.01814  -0.18983
1424  O 8   py      -0.01390   0.01825  -0.03197
1425  O 8   pz      -0.10518  -0.05819   0.08619
1426  O 8   px      -0.06224   0.07277   0.00903
1427  O 8   py      -0.05595  -0.00632   0.01065
1428  O 8   pz      -0.13805   0.01661   0.27858
1429  O 8   d 1      0.00004   0.00002  -0.00007
1430  O 8   d 2     -0.00003  -0.00004  -0.00002
1431  O 8   d 3     -0.00012  -0.00015  -0.00009
1432  O 8   d 4     -0.00014  -0.00016  -0.00015
1433  O 8   d 5     -0.00011  -0.00015  -0.00031
1434  O 8   d 1     -0.00053  -0.00018   0.00058
1435  O 8   d 2      0.00023   0.00037   0.00064
1436  O 8   d 3     -0.00011   0.00042   0.00155
1437  O 8   d 4      0.00089   0.00102   0.00157
1438  O 8   d 5      0.00092   0.00065   0.00172
1439  O 8   d 1      0.00015   0.00206  -0.00671
1440  O 8   d 2     -0.00036  -0.00124  -0.00588
1441  O 8   d 3      0.00313   0.00017  -0.01434
1442  O 8   d 4     -0.01392  -0.01023  -0.00554
1443  O 8   d 5     -0.00743  -0.00069  -0.01349
1444  O 8   d 1     -0.00643   0.01567  -0.01195
1445  O 8   d 2      0.00024  -0.00322  -0.01819
1446  O 8   d 3      0.00333  -0.02612  -0.05671
1447  O 8   d 4     -0.06779  -0.03885   0.00565
1448  O 8   d 5     -0.02863   0.01485  -0.02000
1449  O 8   f 1     -0.00002  -0.00002   0.00018
1450  O 8   f 2     -0.00001   0.00005   0.00021
1451  O 8   f 3     -0.00003   0.00002   0.00007
1452  O 8   f 4     -0.00001   0.00015  -0.00012
1453  O 8   f 5     -0.00008   0.00012   0.00039
1454  O 8   f 6      0.00002   0.00004   0.00023
1455  O 8   f 7      0.00010   0.00002  -0.00003
1456  O 8   f 1      0.00002   0.00018  -0.00132
1457  O 8   f 2      0.00010  -0.00015  -0.00142
1458  O 8   f 3     -0.00013  -0.00018  -0.00004
1459  O 8   f 4     -0.00012  -0.00100   0.00222
1460  O 8   f 5      0.00075  -0.00033  -0.00252
1461  O 8   f 6     -0.00051  -0.00022  -0.00131
1462  O 8   f 7     -0.00056   0.00004  -0.00029
1463  O 8   f 1     -0.00057   0.00449  -0.00458
1464  O 8   f 2      0.00053  -0.00140  -0.00947
1465  O 8   f 3     -0.00006  -0.00018   0.00060
1466  O 8   f 4      0.00791   0.00387   0.01645
1467  O 8   f 5      0.00332  -0.01254  -0.02674
1468  O 8   f 6     -0.01301  -0.00891  -0.00414
1469  O 8   f 7     -0.00549   0.00245  -0.00286
1470  O 8   g 1      0.00002  -0.00005  -0.00001
1471  O 8   g 2     -0.00001   0.00005   0.00008
1472  O 8   g 3      0.00001   0.00001   0.00005
1473  O 8   g 4      0.00004   0.00004  -0.00004
1474  O 8   g 5      0.00008  -0.00010  -0.00028
1475  O 8   g 6     -0.00006  -0.00012   0.00002
1476  O 8   g 7     -0.00001   0.00015   0.00023
1477  O 8   g 8      0.00007   0.00011  -0.00006
1478  O 8   g 9      0.00003  -0.00002  -0.00007
1479  O 8   g 1     -0.00000   0.00091  -0.00099
1480  O 8   g 2      0.00017  -0.00020  -0.00219
1481  O 8   g 3     -0.00031  -0.00036  -0.00035
1482  O 8   g 4     -0.00028  -0.00049   0.00028
1483  O 8   g 5     -0.00015   0.00188   0.00141
1484  O 8   g 6     -0.00013   0.00030   0.00371
1485  O 8   g 7      0.00019  -0.00196  -0.00374
1486  O 8   g 8     -0.00127  -0.00102  -0.00058
1487  O 8   g 9     -0.00072   0.00032   0.00040
1488  O 8   h 1      0.00002   0.00015  -0.00011
1489  O 8   h 2      0.00004   0.00003  -0.00029
1490  O 8   h 3     -0.00004  -0.00011  -0.00014
1491  O 8   h 4      0.00000  -0.00013  -0.00006
1492  O 8   h 5      0.00004   0.00006   0.00009
1493  O 8   h 6      0.00005   0.00000   0.00005
1494  O 8   h 7      0.00015   0.00011  -0.00019
1495  O 8   h 8     -0.00006  -0.00006   0.00025
1496  O 8   h 9     -0.00001  -0.00019  -0.00033
1497  O 8   h10     -0.00011  -0.00007  -0.00002
1498  O 8   h11     -0.00009   0.00002   0.00010
1499  H 15  s       -0.00166  -0.00026   0.00457
1500  H 15  s        0.00173   0.00471  -0.00293
1501  H 15  s       -0.05638  -0.02182   0.26063
1502  H 15  s       -0.06075  -0.13513   0.09746
1503  H 15  s       -0.37310   0.15117   1.04423
1504  H 15  px      -0.00005   0.00021   0.00092
1505  H 15  py      -0.00002  -0.00020  -0.00028
1506  H 15  pz       0.00066  -0.00048  -0.00271
1507  H 15  px      -0.00012   0.00011  -0.00227
1508  H 15  py       0.00013   0.00114   0.00037
1509  H 15  pz       0.00100   0.00166   0.00272
1510  H 15  px      -0.00658   0.00692   0.01097
1511  H 15  py      -0.00291  -0.00824   0.00439
1512  H 15  pz      -0.00948  -0.02309   0.03817
1513  H 15  px      -0.02667  -0.01184  -0.01853
1514  H 15  py       0.00323  -0.00551   0.00634
1515  H 15  pz      -0.03235  -0.06773   0.04354
1516  H 15  d 1     -0.00002  -0.00009  -0.00005
1517  H 15  d 2      0.00010   0.00009  -0.00023
1518  H 15  d 3      0.00039   0.00006  -0.00090
1519  H 15  d 4      0.00007  -0.00020  -0.00008
1520  H 15  d 5     -0.00003   0.00021   0.00012
1521  H 15  d 1      0.00017   0.00076   0.00011
1522  H 15  d 2     -0.00111  -0.00116   0.00214
1523  H 15  d 3     -0.00274  -0.00155   0.01055
1524  H 15  d 4     -0.00024   0.00291   0.00027
1525  H 15  d 5      0.00003  -0.00136  -0.00084
1526  H 15  d 1     -0.00019  -0.00046  -0.00081
1527  H 15  d 2     -0.00041  -0.00722   0.00068
1528  H 15  d 3     -0.01010  -0.01642   0.00590
1529  H 15  d 4     -0.00854  -0.00300   0.00609
1530  H 15  d 5      0.00300   0.00044  -0.00393
1531  H 15  f 1     -0.00007  -0.00005   0.00001
1532  H 15  f 2     -0.00004   0.00011   0.00001
1533  H 15  f 3     -0.00014  -0.00005   0.00027
1534  H 15  f 4     -0.00007   0.00001   0.00097
1535  H 15  f 5      0.00017   0.00043  -0.00012
1536  H 15  f 6     -0.00010   0.00001   0.00024
1537  H 15  f 7     -0.00000  -0.00014  -0.00007
1538  H 15  f 1      0.00023  -0.00005  -0.00004
1539  H 15  f 2      0.00046   0.00014  -0.00040
1540  H 15  f 3     -0.00037  -0.00186   0.00054
1541  H 15  f 4     -0.00303  -0.00246   0.00227
1542  H 15  f 5     -0.00144   0.00019   0.00124
1543  H 15  f 6      0.00104  -0.00118  -0.00248
1544  H 15  f 7      0.00005   0.00081   0.00057
1545  H 15  g 1      0.00000   0.00002  -0.00000
1546  H 15  g 2     -0.00001  -0.00006  -0.00002
1547  H 15  g 3      0.00004   0.00005  -0.00006
1548  H 15  g 4     -0.00007  -0.00017   0.00012
1549  H 15  g 5     -0.00026  -0.00012   0.00039
1550  H 15  g 6     -0.00003   0.00012   0.00004
1551  H 15  g 7      0.00006  -0.00008  -0.00011
1552  H 15  g 8     -0.00001  -0.00002  -0.00005
1553  H 15  g 9     -0.00001   0.00003   0.00001
1554  H 16  s       -0.00121  -0.00122   0.00193
1555  H 16  s       -0.00382   0.00279   0.00024
1556  H 16  s        0.12098  -0.01395   0.17152
1557  H 16  s        0.31121   0.11272   0.15703
1558  H 16  s        0.28317  -0.02808  -0.33614
1559  H 16  px      -0.00039  -0.00058   0.00051
1560  H 16  py       0.00026   0.00025  -0.00004
1561  H 16  pz      -0.00035  -0.00033   0.00036
1562  H 16  px      -0.00008   0.00092  -0.00126
1563  H 16  py      -0.00183  -0.00133  -0.00002
1564  H 16  pz       0.00009  -0.00036  -0.00055
1565  H 16  px      -0.05424  -0.02828  -0.05889
1566  H 16  py      -0.00893  -0.00293  -0.00142
1567  H 16  pz      -0.02432   0.01271  -0.00156
1568  H 16  px      -0.08060   0.02783  -0.09671
1569  H 16  py      -0.06228  -0.04812   0.00949
1570  H 16  pz       0.01113   0.07712  -0.03698
1571  H 16  d 1     -0.00011   0.00007   0.00050
1572  H 16  d 2     -0.00015  -0.00027   0.00029
1573  H 16  d 3      0.00007   0.00057   0.00035
1574  H 16  d 4      0.00008   0.00027  -0.00016
1575  H 16  d 5      0.00005   0.00028  -0.00044
1576  H 16  d 1      0.00268   0.00107  -0.00163
1577  H 16  d 2      0.00182   0.00124  -0.00180
1578  H 16  d 3     -0.00128  -0.00524  -0.00618
1579  H 16  d 4      0.00312  -0.00239   0.00304
1580  H 16  d 5      0.00265   0.00071   0.00889
1581  H 16  d 1      0.01073   0.01103   0.00316
1582  H 16  d 2      0.00146  -0.00269  -0.00011
1583  H 16  d 3     -0.01064  -0.01214  -0.00820
1584  H 16  d 4      0.00772  -0.01452  -0.01135
1585  H 16  d 5      0.01181   0.01202   0.01454
1586  H 16  f 1     -0.00005  -0.00004  -0.00032
1587  H 16  f 2     -0.00004   0.00012  -0.00019
1588  H 16  f 3      0.00005   0.00023   0.00016
1589  H 16  f 4      0.00027   0.00019   0.00048
1590  H 16  f 5     -0.00018   0.00010   0.00045
1591  H 16  f 6     -0.00034  -0.00002  -0.00054
1592  H 16  f 7     -0.00026  -0.00008  -0.00051
1593  H 16  f 1     -0.00294  -0.00217   0.00218
1594  H 16  f 2     -0.00220  -0.00118   0.00302
1595  H 16  f 3      0.00005  -0.00015   0.00003
1596  H 16  f 4      0.00059  -0.00079  -0.00048
1597  H 16  f 5      0.00203   0.00635   0.00460
1598  H 16  f 6     -0.00005   0.00225   0.00021
1599  H 16  f 7     -0.00009  -0.00127  -0.00389
1600  H 16  g 1      0.00019   0.00016  -0.00008
1601  H 16  g 2      0.00019   0.00007  -0.00019
1602  H 16  g 3      0.00000  -0.00010  -0.00013
1603  H 16  g 4     -0.00006  -0.00004   0.00004
1604  H 16  g 5      0.00001   0.00032   0.00031
1605  H 16  g 6     -0.00008  -0.00015  -0.00023
1606  H 16  g 7     -0.00006  -0.00040  -0.00037
1607  H 16  g 8     -0.00003  -0.00013   0.00021
1608  H 16  g 9      0.00001   0.00004   0.00029

 -----------------------------------------------------------------
                    Cartesian Multipole Moments
 -----------------------------------------------------------------
    Charge (ESU x 10^10)
                 0.0000
    Dipole Moment (Debye)
         X      -3.6136      Y       2.8747      Z       1.8453
       Tot       4.9727
    Quadrupole Moments (Debye-Ang)
        XX     -67.8916     XY     -12.5507     YY     -36.1267
        XZ      -3.4512     YZ       8.7835     ZZ     -46.0743
    Octopole Moments (Debye-Ang^2)
       XXX     -41.5338    XXY      20.6953    XYY      -9.1614
       YYY      42.2351    XXZ     -47.9147    XYZ       5.5249
       YYZ      43.1037    XZZ      -1.9949    YZZ       7.5900
       ZZZ      56.7583
    Hexadecapole Moments (Debye-Ang^3)
      XXXX   -1608.4460   XXXY    -453.5392   XXYY    -480.8391
      XYYY    -216.4460   YYYY    -669.6970   XXXZ    -318.6738
      XXYZ     -95.3656   XYYZ     -53.8549   YYYZ    -115.6572
      XXZZ    -368.4332   XYZZ     -10.1774   YYZZ    -166.5271
      XZZZ    -150.5478   YZZZ     -61.2450   ZZZZ    -843.5044
 -----------------------------------------------------------------
 Total job time:  1225615.29s(wall), 1225069.19s(cpu) 
 Thu Jan 23 17:54:31 2025

        *************************************************************
        *                                                           *
        *  Thank you very much for using Q-Chem.  Have a nice day.  *
        *                                                           *
        *************************************************************


