                  Welcome to Q-Chem
     A Quantum Leap Into The Future Of Chemistry


 Q-Chem 6.2 (devel), Q-Chem, Inc., Pleasanton, CA (2024)

 E. Epifanovsky,  A. T. B. Gilbert,  Xintian Feng,  Joonho Lee,  Yuezhi Mao,  
 N. Mardirossian,  P. Pokhilko,  A. White,  M. Wormit,  M. P. Coons,  
 A. L. Dempwolff,  Zhengting Gan,  D. Hait,  P. R. Horn,  L. D. Jacobson,  
 I. Kaliman,  J. Kussmann,  A. W. Lange,  Ka Un Lao,  D. S. Levine,  Jie Liu,  
 S. C. McKenzie,  A. F. Morrison,  K. D. Nanda,  F. Plasser,  D. R. Rehn,  
 M. L. Vidal,  Zhi-Qiang You,  Ying Zhu,  Huseyin Aksu,  B. Alam,  
 B. Albrecht,  A. Aldossary,  E. Alguire,  J. H. Andersen,  
 J. E. Arias-Martinez,  V. Athavale,  D. Barton,  K. Begam,  A. Behn,  
 N. Bellonzi,  Y. A. Bernard,  E. J. Berquist,  H. Burton,  A. Carreras,  
 K. Carter-Fenk,  Mathew Chow,  Romit Chakraborty,  Chandrima Chakravarty,  
 Junhan Chen,  A. D. Chien,  K. D. Closser,  V. Cofer-Shabica,  L. Cunha,  
 S. Dasgupta,  Jia Deng,  Joseph Dickinson,  M. de Wergifosse,  
 M. Diedenhofen,  Hainam Do,  Wenjie Dou,  S. Ehlert,  Po-Tung Fang,  
 S. Fatehi,  Qingguo Feng,  Jonathan Fetherolf,  T. Friedhoff,  
 Thomas Froitzheim,  Sarai Folkestad,  B. Ganoe,  J. Gayvert,  Qinghui Ge,  
 G. Gidofalvi,  M. Gimferrer,  M. Goldey,  Montgomery Gray,  J. Gomes,  
 C. Gonzalez-Espinoza,  S. Gulania,  A. Gunina,  J. A. Gyamfi,  
 M. W. D. Hanson-Heine,  P. H. P. Harbach,  A. W. Hauser,  M. F. Herbst,  
 M. Hernandez Vera,  M. Hodecker,  Z. C. Holden,  S. Houck,  Xunkun Huang,  
 Kerwin Hui,  B. C. Huynh,  K. Ikeda,  M. Ivanov,  Nayanthara K. Jayadev,  
 Hyunjun Ji,  Zuxin Jin,  Hanjie Jiang,  Subrata Jana,  B. Kaduk,  
 S. Kaehler,  R. Kang,  K. Khistyaev,  Jaehoon Kim,  Yongbin Kim,  
 P. Klunzinger,  Z. Koczor-Benda,  Joong Hoon Koh,  D. Kosenkov,  
 Saikiran Kotaru,  L. Koulias,  T. Kowalczyk,  C. M. Krauter,  K. Kue,  
 A. Kunitsa,  T. Kus,  A. Landau,  K. V. Lawler,  D. Lefrancois,  S. Lehtola,  
 Rain Li,  Shaozhi Li,  Tao E. Li,  Yi-Pei Li,  Jiashu Liang,  M. Liebenthal,  
 Hung-Hsuan Lin,  You-Sheng Lin,  Fenglai Liu,  Kuan-Yu Liu,  Xiao Liu,  
 M. Loipersberger,  A. Luenser,  C. Malbon,  Aniket Mandal,  Manisha,  
 A. Manjanath,  P. Manohar,  E. Mansoor,  S. F. Manzer,  Shan-Ping Mao,  
 A. V. Marenich,  T. Markovich,  S. Mason,  F. Matz,  S. A. Maurer,  
 Samuel May,  Alexandra McIsaac,  P. F. McLaughlin,  M. F. S. J. Menger,  
 J.-M. Mewes,  S. A. Mewes,  P. Morgante,  Mohammad Mostafanejad,  
 Madhubani Mukherjee,  J. W. Mullinax,  Quyen Nguyen,  Avik Kumar Ojha,  
 K. J. Oosterbaan,  Eno Paenurk,  Xiaoliang Pan,  G. Paran,  V. Parravicini,  
 Alexander C. Paul,  Suranjan K. Paul,  F. Pavosevic,  Zheng Pei,  S. Prager,  
 E. I. Proynov,  E. Ramos,  B. Rana,  A. E. Rask,  A. Rettig,  R. M. Richard,  
 F. Rob,  E. Rossomme,  T. Scheele,  M. Scheurer,  M. Schneider,  
 P. E. Schneider,  Tim K. Schramm,  N. Sergueev,  S. M. Sharada,  
 Hengyuan Shen,  W. Skomorowski,  D. W. Small,  C. J. Stein,  
 Alistair J. Sterling,  Yingli Su,  Yu-Chuan Su,  E. J. Sundstrom,  
 J. Talbot,  Zhen Tao,  J. Thirman,  Hung-Yi Tsai,  T. Tsuchimochi,  
 N. M. Tubman,  C. Utku,  S. P. Veccham,  O. Vydrov,  Rahel Weiss,  
 J. Wenzel,  Jonathan Wong,  J. Witte,  H. Wu,  Yanze Wu,  A. Yamada,  
 Chou-Hsun Yang,  Kun Yao,  S. Yeganeh,  S. R. Yost,  Qi Yu,  A. Zech,  
 F. Zeller,  Chongxiao Zhao,  Igor Ying Zhang,  Xing Zhang,  Yu Zhang,  
 D. Zuev,  A. Aspuru-Guzik,  A. T. Bell,  N. A. Besley,  K. B. Bravaya,  
 B. R. Brooks,  D. Casanova,  Jeng-Da Chai,  Hsing-Ta Chen,  S. Coriani,  
 C. J. Cramer,  A. E. DePrince, III,  R. A. DiStasio Jr.,  A. Dreuw,  
 B. D. Dunietz,  T. R. Furlani,  W. A. Goddard III,  S. Grimme,  
 S. Hammes-Schiffer,  T. Head-Gordon,  W. J. Hehre,  Chao-Ping Hsu,  
 T.-C. Jagau,  Yousung Jung,  A. Klamt,  Jing Kong,  D. S. Lambrecht,  
 Xiangyuan Li,  WanZhen Liang,  N. J. Mayhall,  C. W. McCurdy,  J. B. Neaton,  
 T. Neudecker,  C. Ochsenfeld,  J. A. Parkhill,  R. Peverati,  
 V. A. Rassolov,  Haisheng Ren,  Yihan Shao,  L. V. Slipchenko,  
 R. P. Steele,  J. E. Subotnik,  A. J. W. Thom,  A. Tkatchenko,  
 D. G. Truhlar,  T. Van Voorhis,  Fan Wang,  T. A. Wesolowski,  K. B. Whaley,  
 H. L. Woodcock III,  P. M. Zimmerman,  S. Faraji,  P. M. W. Gill,  
 M. Head-Gordon,  J. M. Herbert,  A. I. Krylov

 Contributors to earlier versions of Q-Chem not listed above: 
 R. D. Adamson,  B. Austin,  R. Baer,  J. Baker,  G. J. O. Beran,  
 K. Brandhorst,  S. T. Brown,  E. F. C. Byrd,  Arup K. Chakraborty,  
 G. K. L. Chan,  Chun-Min Chang,  Yunqing Chen,  C.-L. Cheng,  
 Siu Hung Chien,  D. M. Chipman,  D. L. Crittenden,  H. Dachsel,  
 R. J. Doerksen,  A. D. Dutoi,  R. G. Edgar,  J. Fosso-Tande,  
 L. Fusti-Molnar,  D. Ghosh,  A. Ghysels,  A. Golubeva-Zadorozhnaya,  
 J. Gonthier,  M. S. Gordon,  S. R. Gwaltney,  G. Hawkins,  J. E. Herr,  
 A. Heyden,  S. Hirata,  E. G. Hohenstein,  G. Kedziora,  F. J. Keil,  
 C. Kelley,  Jihan Kim,  R. A. King,  R. Z. Khaliullin,  P. P. Korambath,  
 W. Kurlancheek,  A. Laurent,  A. M. Lee,  M. S. Lee,  S. V. Levchenko,  
 Ching Yeh Lin,  D. Liotard,  E. Livshits,  R. C. Lochan,  I. Lotan,  
 L. A. Martinez-Martinez,  P. E. Maslen,  N. Nair,  D. P. O'Neill,  
 D. Neuhauser,  E. Neuscamman,  C. M. Oana,  R. Olivares-Amaya,  R. Olson,  
 T. M. Perrine,  B. Peters,  P. A. Pieniazek,  A. Prociuk,  Y. M. Rhee,  
 J. Ritchie,  M. A. Rohrdanz,  E. Rosta,  N. J. Russ,  H. F. Schaefer III,  
 M. W. Schmidt,  N. E. Schultz,  S. Sharma,  N. Shenvi,  C. D. Sherrill,  
 A. C. Simmonett,  A. Sodt,  T. Stein,  D. Stuck,  K. S. Thanthiriwatte,  
 V. Vanovschi,  L. Vogt,  Tao Wang,  A. Warshel,  M. A. Watson,  
 C. F. Williams,  Q. Wu,  X. Xu,  Jun Yang,  W. Zhang,  Yan Zhao

   Please cite Q-Chem as follows:
  "Software for the frontiers of quantum chemistry:
   An overview of developments in the Q-Chem 5 package"
   J. Chem. Phys. 155, 084801 (2021)
   https://doi.org/10.1063/5.0055522 (open access)

 Q-Chem 6.2.2 for Intel X86 EM64T Linux

 Parts of Q-Chem use Armadillo 9.900.5 (Nocturnal Misbehaviour).
 http://arma.sourceforge.net/

 Q-Chem begins on Tue Jan 14 15:08:50 2025  

 Host: compute-0-9.local
0

     Scratch files written to /scratch/keith/A0D2_2//
 Processing $rem in /home/keith/software/qchem/qchem_622/config/preferences:
 Processing $rem in /home/keith/.qchemrc:

 Checking the input file for inconsistencies... 	...done.

--------------------------------------------------------------
User input:
--------------------------------------------------------------
$molecule
0 1
O 0.07319 7.74968 0.86993
O 1.83339 -16.23832 -0.93507
H 2.04089 -15.40532 -1.34407
H 0.94919 -16.13732 -0.44207
O -0.16481 -15.61032 1.11393
H -1.06881 -15.31932 0.81593
H -0.37681 -16.52432 1.41693
O -1.05181 6.77068 -1.33207
H -0.28881 6.35568 -1.77507
H -1.16681 7.59968 -1.78707
O 0.83619 5.13468 1.21393
H 1.61569 4.80128 0.76093
H 0.04519 4.74218 0.78093
H 0.40319 6.92068 1.19893
H -0.48281 7.51168 0.07993
O -2.84081 5.96168 1.36793
H -2.17481 6.48068 1.86393
H -3.13981 6.47568 0.57293
O 1.33519 6.18568 -2.18207
H 1.68279 6.96868 -2.70307
H 1.63579 6.26368 -1.28807
$end

$rem
method                    b3lyp 
basis                     cc-pv5z 
mem_total                 48000
mem_static                8000
thresh                    12
scf_convergence           8
xc_grid                   000075000302
max_scf_cycles            2000
symmetry                  false
sym_ignore                true
print_orbitals true
$end
gui                       2
molden_format true
--------------------------------------------------------------
 ----------------------------------------------------------------
             Standard Nuclear Orientation (Angstroms)
    I     Atom           X                Y                Z
 ----------------------------------------------------------------
    1      O       0.0731900000     7.7496800000     0.8699300000
    2      O       1.8333900000   -16.2383200000    -0.9350700000
    3      H       2.0408900000   -15.4053200000    -1.3440700000
    4      H       0.9491900000   -16.1373200000    -0.4420700000
    5      O      -0.1648100000   -15.6103200000     1.1139300000
    6      H      -1.0688100000   -15.3193200000     0.8159300000
    7      H      -0.3768100000   -16.5243200000     1.4169300000
    8      O      -1.0518100000     6.7706800000    -1.3320700000
    9      H      -0.2888100000     6.3556800000    -1.7750700000
   10      H      -1.1668100000     7.5996800000    -1.7870700000
   11      O       0.8361900000     5.1346800000     1.2139300000
   12      H       1.6156900000     4.8012800000     0.7609300000
   13      H       0.0451900000     4.7421800000     0.7809300000
   14      H       0.4031900000     6.9206800000     1.1989300000
   15      H      -0.4828100000     7.5116800000     0.0799300000
   16      O      -2.8408100000     5.9616800000     1.3679300000
   17      H      -2.1748100000     6.4806800000     1.8639300000
   18      H      -3.1398100000     6.4756800000     0.5729300000
   19      O       1.3351900000     6.1856800000    -2.1820700000
   20      H       1.6827900000     6.9686800000    -2.7030700000
   21      H       1.6357900000     6.2636800000    -1.2880700000
 ----------------------------------------------------------------
 Nuclear Repulsion Energy =         265.20906418 hartrees
 There are       35 alpha and       35 beta electrons
 Requested basis set is cc-pV5Z
 There are 357 shells and 1407 basis functions

 Total QAlloc Memory Limit  48000 MB
 Mega-Array Size      7821 MB
 MEM_STATIC part      8000 MB

 A cutoff of  1.0D-12 yielded  28790 shell pairs
 There are    409996 function pairs (    693039 Cartesian)
 Smallest overlap matrix eigenvalue = 2.96E-05

 Scale SEOQF with 1.000000e-01/1.000000e-02/1.000000e-01

 Standard Electronic Orientation quadrupole field applied
 Nucleus-field energy     =     0.0000000426 hartrees
 Guess from superposition of atomic densities
 Warning:  Energy on first SCF cycle will be non-variational
 SAD guess density has 70.000000 electrons

 -----------------------------------------------------------------------
  General SCF calculation program by
  Eric Jon Sundstrom, Paul Horn, Yuezhi Mao, Dmitri Zuev, Alec White,
  David Stuck, Shaama M.S., Shane Yost, Joonho Lee, David Small,
  Daniel Levine, Susi Lehtola, Hugh Burton, Evgeny Epifanovsky,
  Bang C. Huynh
 -----------------------------------------------------------------------
 Exchange:     0.2000 Hartree-Fock + 0.0800 Slater + 0.7200 B88
 Correlation:  0.1900 VWN1RPA + 0.8100 LYP
 Using Euler-Maclaurin-Lebedev (75,302) quadrature formula
 A restricted SCF calculation will be
 performed using DIIS
 SCF converges when DIIS error is below 1.0e-08
 ---------------------------------------
  Cycle       Energy         DIIS error
 ---------------------------------------
    1    -535.0485564640      6.13e-03  
    2    -534.8734651981      1.61e-03  
    3    -534.3702500669      2.36e-03  
    4    -535.3232629581      8.62e-05  
    5    -535.3236126886      7.52e-05  
    6    -535.3244890601      9.37e-06  
    7    -535.3245018798      2.59e-06  
    8    -535.3245025931      1.56e-06  
    9    -535.3245029853      1.29e-07  
   10    -535.3245029879      4.59e-08  
   11    -535.3245029882      2.59e-08  
   12    -535.3245029883      1.45e-09  Convergence criterion met
 ---------------------------------------
 SCF time:   CPU 152066.86s  wall 4846.00s 
 SCF   energy =  -535.32450299
 Total energy =  -535.32450299

 --------------------------------------------------------------

                    Orbital Energies (a.u.)
 --------------------------------------------------------------

 Alpha MOs
 -- Occupied --
-19.1810 -19.1676 -19.1615 -19.1360 -19.1148 -19.1038 -19.0766  -1.0668
 -1.0431  -1.0393  -1.0298  -0.9857  -0.9793  -0.9640  -0.5901  -0.5679
 -0.5539  -0.5457  -0.5178  -0.5108  -0.5010  -0.4489  -0.4335  -0.4270
 -0.4179  -0.3815  -0.3715  -0.3688  -0.3566  -0.3420  -0.3393  -0.3149
 -0.3014  -0.2929  -0.2780
 -- Virtual --
 -0.0446  -0.0279  -0.0052   0.0067   0.0342   0.0402   0.0434   0.0498
  0.0766   0.0805   0.1021   0.1097   0.1235   0.1337   0.1717   0.1763
  0.1811   0.1856   0.1869   0.1934   0.2039   0.2157   0.2272   0.2288
  0.2304   0.2353   0.2456   0.2484   0.2486   0.2585   0.2610   0.2724
  0.2747   0.2776   0.2878   0.2950   0.3069   0.3120   0.3182   0.3192
  0.3258   0.3308   0.3373   0.3447   0.3458   0.3579   0.3619   0.3681
  0.3703   0.3816   0.3895   0.4039   0.4123   0.4204   0.4225   0.4529
  0.4558   0.4562   0.4661   0.4847   0.4924   0.5091   0.5233   0.5464
  0.5538   0.5633   0.5716   0.5732   0.5741   0.5904   0.6099   0.6144
  0.6200   0.6387   0.6463   0.6539   0.6634   0.6719   0.6760   0.6832
  0.6918   0.7064   0.7128   0.7258   0.7264   0.7293   0.7384   0.7501
  0.7594   0.7781   0.7843   0.7881   0.7928   0.8068   0.8077   0.8093
  0.8286   0.8313   0.8341   0.8411   0.8545   0.8654   0.8702   0.8837
  0.8920   0.9129   0.9236   0.9491   0.9540   0.9779   0.9789   0.9864
  0.9987   1.0016   1.0020   1.0145   1.0271   1.0310   1.0460   1.0529
  1.0542   1.0739   1.0755   1.0940   1.0995   1.1161   1.1208   1.1265
  1.1359   1.1413   1.1480   1.1597   1.1602   1.1686   1.1834   1.1898
  1.1992   1.2201   1.2233   1.2327   1.2333   1.2482   1.2616   1.2842
  1.2884   1.2901   1.2996   1.3094   1.3135   1.3622   1.3750   1.3875
  1.3879   1.3952   1.4058   1.4149   1.4242   1.4377   1.4588   1.4633
  1.4667   1.4788   1.4987   1.5141   1.5160   1.5276   1.5316   1.5375
  1.5428   1.5537   1.5602   1.5689   1.5835   1.5852   1.5881   1.6021
  1.6152   1.6201   1.6235   1.6314   1.6416   1.6467   1.6475   1.6639
  1.6644   1.6745   1.6840   1.6881   1.7005   1.7034   1.7056   1.7156
  1.7286   1.7329   1.7340   1.7390   1.7492   1.7668   1.7706   1.7769
  1.7837   1.7853   1.7997   1.8010   1.8085   1.8155   1.8223   1.8411
  1.8414   1.8598   1.8602   1.8748   1.8755   1.8838   1.8874   1.9038
  1.9110   1.9134   1.9143   1.9249   1.9467   1.9546   1.9773   1.9808
  1.9917   2.0011   2.0067   2.0154   2.0322   2.0393   2.0416   2.0464
  2.0667   2.0698   2.0708   2.0848   2.0923   2.0952   2.1199   2.1317
  2.1394   2.1603   2.1657   2.1910   2.2018   2.2122   2.2207   2.2270
  2.2388   2.2575   2.2609   2.2747   2.2796   2.3057   2.3155   2.3329
  2.3415   2.3565   2.3636   2.3672   2.3791   2.4008   2.4085   2.4108
  2.4137   2.4259   2.4363   2.4374   2.4491   2.4526   2.4649   2.4797
  2.4948   2.5010   2.5142   2.5207   2.5358   2.5491   2.5833   2.5858
  2.6045   2.6239   2.6292   2.6318   2.6479   2.6615   2.6796   2.6822
  2.6931   2.7008   2.7279   2.7285   2.7398   2.7487   2.7521   2.7627
  2.7838   2.8022   2.8040   2.8158   2.8297   2.8379   2.8446   2.8463
  2.8584   2.8756   2.8969   2.9057   2.9195   2.9278   2.9345   2.9535
  2.9707   2.9772   2.9790   2.9964   2.9982   3.0049   3.0182   3.0194
  3.0373   3.0455   3.0618   3.0756   3.0919   3.1148   3.1265   3.1544
  3.1691   3.1741   3.1867   3.2051   3.2103   3.2257   3.2352   3.2456
  3.2537   3.2574   3.2709   3.2845   3.3093   3.3137   3.3164   3.3328
  3.3416   3.3482   3.3510   3.3629   3.3722   3.3870   3.4002   3.4003
  3.4043   3.4266   3.4515   3.4669   3.4800   3.4916   3.4983   3.5133
  3.5331   3.5380   3.5428   3.5496   3.5589   3.5860   3.6017   3.6035
  3.6208   3.6300   3.6325   3.6466   3.6627   3.6913   3.6914   3.7005
  3.7190   3.7205   3.7300   3.7364   3.7392   3.7639   3.7722   3.7795
  3.7839   3.7961   3.8083   3.8243   3.8297   3.8456   3.8666   3.8694
  3.8738   3.8956   3.8956   3.9149   3.9344   3.9421   3.9422   3.9527
  3.9741   3.9930   4.0072   4.0300   4.0312   4.0498   4.0664   4.0951
  4.1170   4.1345   4.1389   4.1553   4.2205   4.2248   4.2566   4.2589
  4.2595   4.2872   4.2944   4.2978   4.3044   4.3124   4.3370   4.3374
  4.3500   4.3646   4.3733   4.3905   4.4024   4.4036   4.4205   4.4252
  4.4350   4.4402   4.4472   4.4567   4.4638   4.4667   4.4694   4.4830
  4.4948   4.4996   4.5082   4.5129   4.5166   4.5330   4.5460   4.5472
  4.5490   4.5698   4.5776   4.5800   4.5865   4.5930   4.6034   4.6119
  4.6142   4.6461   4.6576   4.6590   4.6614   4.6674   4.6738   4.6771
  4.7063   4.7125   4.7214   4.7225   4.7374   4.7594   4.7634   4.7709
  4.7785   4.7914   4.7995   4.8001   4.8026   4.8031   4.8154   4.8340
  4.8344   4.8469   4.8510   4.8611   4.8637   4.8908   4.8966   4.8981
  4.9009   4.9187   4.9288   4.9318   4.9565   4.9677   4.9689   4.9756
  4.9873   4.9934   5.0220   5.0335   5.0431   5.0584   5.0833   5.1032
  5.1060   5.1147   5.1181   5.1272   5.1320   5.1549   5.1657   5.1658
  5.1718   5.1816   5.2149   5.2232   5.2278   5.2640   5.2781   5.2803
  5.2983   5.3094   5.3291   5.3512   5.3571   5.3575   5.3686   5.3769
  5.3868   5.4004   5.4142   5.4195   5.4481   5.4725   5.4885   5.4911
  5.5389   5.5471   5.5622   5.5648   5.5899   5.6116   5.6254   5.6416
  5.6607   5.6694   5.6835   5.7197   5.7242   5.7395   5.7563   5.7639
  5.8128   5.8366   5.8638   5.8672   5.8734   5.8960   5.9460   5.9669
  5.9716   5.9741   6.0183   6.0310   6.0780   6.0789   6.0856   6.1285
  6.1410   6.1755   6.1880   6.1966   6.2056   6.2315   6.2471   6.2622
  6.2735   6.2897   6.2922   6.3046   6.3213   6.3370   6.3412   6.3604
  6.3638   6.3872   6.3918   6.4042   6.4291   6.4303   6.4778   6.4822
  6.4986   6.5170   6.5436   6.5565   6.5736   6.5816   6.5838   6.5947
  6.5949   6.6378   6.6535   6.6581   6.6633   6.6989   6.7046   6.7231
  6.7415   6.7491   6.7596   6.7767   6.7889   6.7932   6.8050   6.8118
  6.8141   6.8347   6.8425   6.8814   6.8885   6.9122   6.9195   6.9211
  6.9250   6.9273   6.9463   6.9677   6.9727   6.9804   6.9939   7.0018
  7.0238   7.0294   7.0442   7.0787   7.0844   7.0891   7.1032   7.1204
  7.1305   7.1506   7.1615   7.1734   7.1780   7.1813   7.1930   7.1993
  7.2090   7.2461   7.2813   7.2819   7.2853   7.3013   7.3229   7.3373
  7.3574   7.3713   7.3782   7.4065   7.4067   7.4182   7.4471   7.4477
  7.4573   7.4644   7.4740   7.5016   7.5101   7.5146   7.5325   7.5536
  7.5925   7.6262   7.6452   7.6479   7.6773   7.6927   7.6929   7.7130
  7.7230   7.7300   7.7406   7.7457   7.7576   7.7702   7.7922   7.8155
  7.8321   7.8450   7.8452   7.8500   7.8582   7.8909   7.8960   7.9283
  7.9385   7.9532   8.0231   8.1183   8.1312   8.1379   8.1859   8.1992
  8.2373   8.2561   8.2889   8.3063   8.3152   8.3416   8.3795   8.4312
  8.4732   8.5029   8.5356   8.5558   8.5856   8.6309   8.7057   8.8766
  8.9176   8.9290   8.9493   8.9682   8.9816   9.0073   9.0258   9.0375
  9.0433   9.0466   9.0639   9.1088   9.1588   9.1807   9.1894   9.2339
  9.2535   9.3184   9.3765   9.4594   9.5376   9.5768   9.6120   9.6307
  9.6412   9.6443   9.6478   9.6560   9.6567   9.6683   9.7112   9.7404
  9.7414   9.7575   9.7647   9.8178   9.8494   9.8617   9.9444   9.9806
 10.0560  10.2175  10.3291  11.6451  11.6551  11.6854  11.6891  11.7082
 11.7106  11.7290  11.7387  11.7483  11.7539  11.7638  11.7677  11.7783
 11.7953  11.8043  11.8062  11.8165  11.8365  11.8535  11.8611  11.8932
 11.9048  11.9212  11.9250  11.9348  11.9442  11.9585  11.9637  11.9999
 12.0046  12.0456  12.0651  12.0694  12.0707  12.0822  12.0953  12.0996
 12.1048  12.1081  12.1127  12.1232  12.1317  12.1354  12.1368  12.1369
 12.1446  12.1498  12.1616  12.1721  12.1757  12.1858  12.1927  12.1994
 12.2086  12.2121  12.2129  12.2208  12.2295  12.2373  12.2401  12.2410
 12.2477  12.2484  12.2543  12.2566  12.2665  12.2740  12.2792  12.2968
 12.3008  12.3058  12.3093  12.3162  12.3236  12.3404  12.3434  12.3530
 12.3627  12.3683  12.3754  12.3790  12.3850  12.3970  12.3970  12.4019
 12.4117  12.4171  12.4177  12.4404  12.4502  12.4584  12.4772  12.4932
 12.5041  12.5061  12.5097  12.5209  12.5248  12.5261  12.5404  12.5523
 12.5629  12.5742  12.5745  12.5851  12.5987  12.6058  12.6313  12.6365
 12.6374  12.6629  12.6697  12.6846  12.6917  12.7137  12.7224  12.7292
 12.7446  12.7546  12.7568  12.7614  12.7787  12.8160  12.8314  12.8489
 12.8696  12.8766  12.8783  12.8876  12.8990  12.9066  12.9100  12.9188
 12.9338  12.9407  12.9417  12.9511  12.9615  12.9901  13.0165  13.0400
 13.0633  13.0835  13.1009  13.1193  13.1280  13.1599  13.1822  13.2115
 13.2135  13.2207  13.2299  13.2554  13.2623  13.2751  13.2820  13.2867
 13.3033  13.3149  13.3213  13.3247  13.3264  13.3384  13.3455  13.3479
 13.3490  13.3684  13.3734  13.3885  13.3902  13.3999  13.4022  13.4184
 13.4184  13.4268  13.4419  13.4443  13.4586  13.4638  13.4705  13.4730
 13.4796  13.4809  13.4963  13.5083  13.5119  13.5174  13.5203  13.5322
 13.5400  13.5426  13.5430  13.5505  13.5686  13.5820  13.5906  13.5930
 13.5965  13.5990  13.6200  13.6352  13.6386  13.6440  13.6544  13.6617
 13.6766  13.6814  13.6946  13.7016  13.7109  13.7313  13.7377  13.7586
 13.7701  13.7821  13.7857  13.7941  13.8101  13.8217  13.8405  13.8537
 13.8749  13.8815  13.8922  13.8947  13.9186  13.9289  13.9388  13.9427
 13.9446  13.9526  13.9746  14.0128  14.0542  14.0609  14.0668  14.0689
 14.0849  14.0942  14.1021  14.1222  14.1353  14.1418  14.1523  14.1599
 14.1726  14.1842  14.2040  14.2110  14.2282  14.2498  14.2543  14.2580
 14.2801  14.2983  14.3093  14.3610  14.3680  14.3811  14.4056  14.5007
 14.5105  14.5314  14.5420  14.5666  14.5795  14.6354  14.6467  14.6700
 14.6870  14.7919  14.9220  14.9612  15.1310  15.1360  15.1873  15.2463
 15.2758  15.2890  15.2989  15.3115  15.3612  15.3808  15.3895  15.4037
 15.4493  15.4941  15.5189  15.5221  15.5288  15.5369  15.5736  15.6667
 15.6986  15.7500  15.7808  15.8092  15.8139  15.8201  15.8240  15.8367
 15.8576  15.8693  15.8726  15.8924  15.9055  15.9237  15.9406  15.9590
 15.9653  15.9766  15.9784  16.0111  16.0174  16.0311  16.0479  16.0508
 16.0610  16.0732  16.0878  16.1011  16.1191  16.1288  16.1291  16.1326
 16.1422  16.1504  16.1762  16.1870  16.1937  16.2002  16.2140  16.2235
 16.2250  16.2408  16.2654  16.2692  16.2762  16.2857  16.2901  16.2938
 16.3070  16.3191  16.3353  16.3682  16.3839  16.3871  16.4040  16.4081
 16.4250  16.4373  16.4632  16.4796  16.5215  16.5648  16.5815  16.6504
 16.7313  16.7676  16.7862  16.7994  16.8338  16.8522  16.8628  16.8730
 16.8888  16.9105  16.9142  16.9419  16.9568  16.9617  17.0463  17.0691
 17.0708  17.0968  17.1300  17.1616  17.1710  17.1831  17.2219  17.2317
 17.2516  17.2742  17.3058  17.3171  17.3274  17.3338  17.3624  17.4108
 17.4124  17.4332  17.4484  17.4514  17.4838  17.5351  17.5484  17.5500
 17.5527  17.5749  17.5804  17.5876  17.6055  17.6337  17.6488  17.6580
 17.6783  17.6970  17.7210  17.7687  17.7845  17.8701  17.9464  17.9569
 17.9908  18.0239  18.0265  18.0399  18.0763  18.0780  18.0926  18.1061
 18.1089  18.1287  18.1678  18.2085  18.2178  18.2481  18.2539  18.2849
 18.2876  18.3032  18.3148  18.3245  18.3357  18.3416  18.3521  18.3894
 18.4030  18.4153  18.4263  18.4364  18.4623  18.4737  18.4880  18.5006
 18.5085  18.5221  18.5339  18.5675  18.5934  18.6008  18.6345  18.6828
 18.7164  18.7480  18.7590  18.7663  18.7670  18.7850  18.8188  18.8474
 18.8587  18.8755  18.8792  18.9056  18.9067  18.9591  18.9787  19.0483
 19.0645  19.0832  19.1715  19.1870  19.1953  19.2177  19.2192  19.2226
 19.2595  19.2604  19.2897  19.2997  19.3106  19.3358  19.3508  19.3654
 19.4188  19.4194  19.4234  19.4323  19.4449  19.4588  19.4645  19.4936
 19.4988  19.5177  19.5244  19.5316  19.5379  19.5590  19.5898  19.6037
 19.6236  19.6454  19.7353  19.7499  19.7520  19.8103  19.8405  19.9136
 19.9288  20.0915  20.5048  20.5343  20.5449  20.6138  20.6230  20.6388
 20.7032  20.7709  20.8068  20.8091  20.8723  20.9957  21.0250  21.1417
 21.8494  21.8800  21.9107  21.9151  21.9364  21.9450  21.9659  21.9680
 21.9812  22.0156  22.0324  22.0395  22.1166  22.2498  22.2571  22.2636
 22.3186  22.3241  22.3309  22.3487  22.3743  22.3834  22.4581  22.4704
 22.4790  22.5485  22.5617  22.6364  22.6617  22.6913  22.7244  22.7747
 22.7813  22.8427  22.8612  22.8614  22.9132  23.0774  23.1214  23.1486
 23.1575  23.3170  23.3222  23.3293  23.3650  23.4026  23.4117  23.5013
 23.6411  23.9770  24.2090  24.2958  24.3310  24.3626  24.3627  24.3941
 24.4035  24.4653  24.5302  24.5340  24.5943  24.8433  24.8622  24.8829
 24.9389  24.9394  24.9698  24.9862  25.3087  25.3468  25.3596  25.5448
 25.8137  25.8928  26.0000  26.1693  26.2767  63.8091  63.8296  63.9056
 64.0849  64.2283  64.5968  64.7872
 --------------------------------------------------------------


                        RESTRICTED (RHF) MOLECULAR ORBITAL COEFFICIENTS
                         1         2         3         4         5         6
 eigenvalues:        -19.181   -19.168   -19.161   -19.136   -19.115   -19.104
   1  O 1   s        0.00000  -0.00000  -0.00004   0.00003   0.00002  -0.00000
   2  O 1   s        0.00001   0.00000  -0.00007   0.00007   0.00002  -0.00000
   3  O 1   s        0.00001   0.00000  -0.00012   0.00013   0.00003  -0.00000
   4  O 1   s       -0.00006   0.00000   0.00023  -0.00022  -0.00001   0.00000
   5  O 1   s       -0.00011  -0.00000   0.00124  -0.00104  -0.00083  -0.00000
   6  O 1   s        0.00029  -0.00000   0.00079  -0.00078  -0.00083  -0.00000
   7  O 1   px       0.00000   0.00000  -0.00000   0.00000  -0.00000   0.00000
   8  O 1   py       0.00000   0.00000   0.00001  -0.00001  -0.00000   0.00000
   9  O 1   pz      -0.00000   0.00000   0.00000  -0.00001   0.00000   0.00000
  10  O 1   px      -0.00001  -0.00000   0.00002  -0.00004   0.00001  -0.00000
  11  O 1   py      -0.00000  -0.00000  -0.00004   0.00006  -0.00001  -0.00000
  12  O 1   pz       0.00001  -0.00000  -0.00004   0.00000  -0.00002   0.00000
  13  O 1   px       0.00003   0.00000   0.00009   0.00052  -0.00007   0.00000
  14  O 1   py       0.00005   0.00000  -0.00036  -0.00008   0.00019   0.00000
  15  O 1   pz      -0.00001   0.00000   0.00034   0.00051   0.00005  -0.00000
  16  O 1   px       0.00006   0.00000  -0.00030   0.00072  -0.00005  -0.00000
  17  O 1   py      -0.00007   0.00000  -0.00057   0.00020   0.00016   0.00000
  18  O 1   pz      -0.00012   0.00000  -0.00031   0.00062   0.00033   0.00000
  19  O 1   px      -0.00004   0.00000  -0.00012   0.00010   0.00002  -0.00000
  20  O 1   py      -0.00009   0.00000  -0.00006   0.00006   0.00012   0.00000
  21  O 1   pz      -0.00008   0.00000  -0.00024   0.00011   0.00008   0.00000
  22  O 1   d 1      0.00000   0.00000   0.00001   0.00000   0.00000  -0.00000
  23  O 1   d 2     -0.00000   0.00000   0.00000   0.00000  -0.00000   0.00000
  24  O 1   d 3      0.00000  -0.00000   0.00001   0.00001  -0.00000   0.00000
  25  O 1   d 4      0.00000  -0.00000   0.00000   0.00000   0.00000  -0.00000
  26  O 1   d 5     -0.00000   0.00000   0.00000  -0.00000  -0.00000  -0.00000
  27  O 1   d 1      0.00000  -0.00000  -0.00003  -0.00001  -0.00000   0.00000
  28  O 1   d 2      0.00000  -0.00000  -0.00001  -0.00002   0.00001  -0.00000
  29  O 1   d 3     -0.00000   0.00000  -0.00003  -0.00003   0.00001  -0.00000
  30  O 1   d 4     -0.00000   0.00000  -0.00001  -0.00001  -0.00000  -0.00000
  31  O 1   d 5      0.00000   0.00000  -0.00002   0.00001   0.00000  -0.00000
  32  O 1   d 1     -0.00002  -0.00000  -0.00001  -0.00004   0.00007  -0.00000
  33  O 1   d 2      0.00000  -0.00000  -0.00022   0.00000   0.00001   0.00000
  34  O 1   d 3     -0.00001  -0.00000   0.00014  -0.00006  -0.00004   0.00000
  35  O 1   d 4      0.00000  -0.00000   0.00019  -0.00032  -0.00007   0.00000
  36  O 1   d 5      0.00001  -0.00000  -0.00002  -0.00020   0.00002   0.00000
  37  O 1   d 1     -0.00007  -0.00000   0.00010  -0.00015   0.00005  -0.00000
  38  O 1   d 2      0.00004   0.00000   0.00016  -0.00014  -0.00008  -0.00000
  39  O 1   d 3      0.00002  -0.00000   0.00002  -0.00000  -0.00015   0.00000
  40  O 1   d 4      0.00004  -0.00000   0.00009  -0.00023  -0.00009  -0.00000
  41  O 1   d 5     -0.00006  -0.00000  -0.00015  -0.00005  -0.00004   0.00000
  42  O 1   f 1      0.00000  -0.00000   0.00001  -0.00000  -0.00000   0.00000
  43  O 1   f 2      0.00000  -0.00000   0.00000   0.00001  -0.00000   0.00000
  44  O 1   f 3     -0.00000  -0.00000   0.00001   0.00001   0.00000   0.00000
  45  O 1   f 4     -0.00000  -0.00000   0.00000   0.00001  -0.00000  -0.00000
  46  O 1   f 5      0.00000  -0.00000  -0.00000  -0.00000  -0.00000   0.00000
  47  O 1   f 6      0.00000  -0.00000   0.00000  -0.00001  -0.00000  -0.00000
  48  O 1   f 7      0.00000  -0.00000  -0.00001  -0.00000  -0.00000  -0.00000
  49  O 1   f 1     -0.00000   0.00000  -0.00002   0.00001  -0.00000  -0.00000
  50  O 1   f 2     -0.00000   0.00000  -0.00005  -0.00002   0.00001  -0.00000
  51  O 1   f 3      0.00001   0.00000  -0.00006  -0.00002  -0.00000  -0.00000
  52  O 1   f 4      0.00000   0.00000  -0.00004  -0.00002   0.00001   0.00000
  53  O 1   f 5     -0.00000   0.00000   0.00002   0.00004   0.00001  -0.00000
  54  O 1   f 6     -0.00000   0.00000  -0.00003   0.00005   0.00001   0.00000
  55  O 1   f 7     -0.00000   0.00000   0.00001   0.00002   0.00001   0.00000
  56  O 1   f 1      0.00000   0.00000   0.00003  -0.00001   0.00002  -0.00000
  57  O 1   f 2     -0.00001   0.00000  -0.00009   0.00001  -0.00000   0.00000
  58  O 1   f 3      0.00002   0.00000  -0.00009  -0.00002   0.00003   0.00000
  59  O 1   f 4     -0.00001   0.00000   0.00002  -0.00007   0.00002  -0.00000
  60  O 1   f 5     -0.00002   0.00000   0.00004   0.00008   0.00006   0.00000
  61  O 1   f 6      0.00003   0.00000   0.00002   0.00006  -0.00005  -0.00000
  62  O 1   f 7     -0.00002   0.00000   0.00000  -0.00001   0.00000  -0.00000
  63  O 1   g 1     -0.00000  -0.00000  -0.00000  -0.00000  -0.00000  -0.00000
  64  O 1   g 2      0.00000  -0.00000   0.00000  -0.00000  -0.00000  -0.00000
  65  O 1   g 3     -0.00000  -0.00000  -0.00000   0.00000   0.00000   0.00000
  66  O 1   g 4      0.00000  -0.00000   0.00000  -0.00000  -0.00000  -0.00000
  67  O 1   g 5     -0.00000   0.00000  -0.00000  -0.00000  -0.00000  -0.00000
  68  O 1   g 6      0.00000  -0.00000   0.00000   0.00000   0.00000  -0.00000
  69  O 1   g 7      0.00000  -0.00000  -0.00000   0.00000   0.00000   0.00000
  70  O 1   g 8      0.00000  -0.00000   0.00000  -0.00000  -0.00000   0.00000
  71  O 1   g 9     -0.00000   0.00000  -0.00000   0.00000  -0.00000  -0.00000
  72  O 1   g 1      0.00001  -0.00000  -0.00000   0.00001   0.00001  -0.00000
  73  O 1   g 2     -0.00001  -0.00000  -0.00002   0.00001   0.00002  -0.00000
  74  O 1   g 3      0.00001   0.00000  -0.00003   0.00001  -0.00000  -0.00000
  75  O 1   g 4     -0.00000  -0.00000  -0.00001   0.00002   0.00000  -0.00000
  76  O 1   g 5      0.00001   0.00000  -0.00003   0.00002  -0.00000   0.00000
  77  O 1   g 6     -0.00000  -0.00000  -0.00000  -0.00000  -0.00001   0.00000
  78  O 1   g 7      0.00000  -0.00000  -0.00002  -0.00002  -0.00000   0.00000
  79  O 1   g 8     -0.00000   0.00000  -0.00002  -0.00002   0.00001   0.00000
  80  O 1   g 9     -0.00000   0.00000   0.00000  -0.00001   0.00001  -0.00000
  81  O 1   h 1      0.00000   0.00000  -0.00000  -0.00000  -0.00000   0.00000
  82  O 1   h 2     -0.00000  -0.00000  -0.00000  -0.00000  -0.00000  -0.00000
  83  O 1   h 3     -0.00000   0.00000   0.00000  -0.00001  -0.00000   0.00000
  84  O 1   h 4      0.00000   0.00000  -0.00000  -0.00000   0.00000   0.00000
  85  O 1   h 5     -0.00000  -0.00000   0.00000  -0.00000   0.00000  -0.00000
  86  O 1   h 6     -0.00000  -0.00000  -0.00000   0.00000  -0.00000  -0.00000
  87  O 1   h 7      0.00000   0.00000  -0.00000  -0.00000   0.00000  -0.00000
  88  O 1   h 8     -0.00000   0.00000  -0.00000  -0.00000   0.00000  -0.00000
  89  O 1   h 9      0.00000   0.00000  -0.00001  -0.00000  -0.00000  -0.00000
  90  O 1   h10     -0.00000   0.00000  -0.00000   0.00000   0.00000  -0.00000
  91  O 1   h11      0.00000  -0.00000  -0.00000   0.00000   0.00000  -0.00000
  92  O 2   s       -0.00000  -0.00002   0.00000   0.00000  -0.00000   0.97832
  93  O 2   s       -0.00000  -0.00001   0.00000  -0.00000  -0.00000   0.03068
  94  O 2   s       -0.00000  -0.00003   0.00000  -0.00000  -0.00000   0.08464
  95  O 2   s       -0.00000   0.00004   0.00000   0.00000   0.00000  -0.01436
  96  O 2   s        0.00000   0.00022  -0.00000   0.00000  -0.00000  -0.01346
  97  O 2   s        0.00000   0.00042  -0.00000  -0.00000  -0.00000  -0.00090
  98  O 2   px      -0.00000   0.00000  -0.00000  -0.00000   0.00000  -0.00060
  99  O 2   py       0.00000  -0.00000  -0.00000   0.00000  -0.00000   0.00099
 100  O 2   pz       0.00000   0.00000   0.00000  -0.00000  -0.00000  -0.00001
 101  O 2   px       0.00000   0.00000   0.00000   0.00000  -0.00000  -0.00034
 102  O 2   py      -0.00000   0.00000   0.00000  -0.00000   0.00000   0.00057
 103  O 2   pz      -0.00000  -0.00003  -0.00000   0.00000   0.00000   0.00001
 104  O 2   px      -0.00000  -0.00015  -0.00000  -0.00000   0.00000   0.00327
 105  O 2   py       0.00000  -0.00001  -0.00000   0.00000  -0.00000  -0.00758
 106  O 2   pz      -0.00000   0.00017   0.00000  -0.00000  -0.00000   0.00062
 107  O 2   px      -0.00000  -0.00046   0.00000   0.00000   0.00000  -0.00083
 108  O 2   py       0.00000  -0.00014  -0.00000   0.00000  -0.00000  -0.00116
 109  O 2   pz      -0.00000   0.00009   0.00000  -0.00000  -0.00000   0.00109
 110  O 2   px      -0.00000  -0.00008   0.00000   0.00000   0.00000  -0.00027
 111  O 2   py       0.00000   0.00002  -0.00000  -0.00000   0.00000  -0.00016
 112  O 2   pz      -0.00000  -0.00001   0.00000  -0.00000  -0.00000   0.00021
 113  O 2   d 1      0.00000  -0.00000   0.00000   0.00000   0.00000   0.00004
 114  O 2   d 2      0.00000  -0.00000  -0.00000   0.00000  -0.00000  -0.00015
 115  O 2   d 3      0.00000   0.00000  -0.00000   0.00000  -0.00000  -0.00010
 116  O 2   d 4     -0.00000   0.00000  -0.00000   0.00000   0.00000  -0.00020
 117  O 2   d 5      0.00000  -0.00000  -0.00000   0.00000  -0.00000  -0.00003
 118  O 2   d 1     -0.00000   0.00001  -0.00000  -0.00000   0.00000  -0.00004
 119  O 2   d 2      0.00000  -0.00000   0.00000  -0.00000  -0.00000   0.00025
 120  O 2   d 3      0.00000  -0.00001   0.00000  -0.00000  -0.00000   0.00017
 121  O 2   d 4      0.00000  -0.00000  -0.00000  -0.00000  -0.00000   0.00030
 122  O 2   d 5     -0.00000   0.00001   0.00000  -0.00000   0.00000   0.00009
 123  O 2   d 1      0.00000  -0.00007  -0.00000   0.00000  -0.00000  -0.00100
 124  O 2   d 2     -0.00000   0.00004   0.00000  -0.00000   0.00000   0.00189
 125  O 2   d 3     -0.00000   0.00003   0.00000  -0.00000   0.00000   0.00090
 126  O 2   d 4     -0.00000  -0.00007   0.00000  -0.00000   0.00000   0.00230
 127  O 2   d 5     -0.00000   0.00005   0.00000  -0.00000  -0.00000   0.00026
 128  O 2   d 1      0.00000  -0.00004  -0.00000   0.00000   0.00000  -0.00008
 129  O 2   d 2     -0.00000  -0.00001   0.00000  -0.00000  -0.00000  -0.00018
 130  O 2   d 3     -0.00000  -0.00012   0.00000   0.00000   0.00000  -0.00017
 131  O 2   d 4     -0.00000   0.00004   0.00000   0.00000   0.00000  -0.00081
 132  O 2   d 5     -0.00000   0.00014   0.00000  -0.00000  -0.00000   0.00025
 133  O 2   f 1      0.00000  -0.00000  -0.00000  -0.00000   0.00000  -0.00003
 134  O 2   f 2      0.00000   0.00000   0.00000   0.00000  -0.00000  -0.00006
 135  O 2   f 3      0.00000  -0.00000   0.00000  -0.00000   0.00000   0.00000
 136  O 2   f 4      0.00000   0.00000   0.00000   0.00000  -0.00000   0.00001
 137  O 2   f 5      0.00000   0.00001   0.00000  -0.00000  -0.00000  -0.00002
 138  O 2   f 6     -0.00000  -0.00000  -0.00000   0.00000   0.00000   0.00015
 139  O 2   f 7      0.00000  -0.00000   0.00000   0.00000  -0.00000  -0.00011
 140  O 2   f 1     -0.00000   0.00001   0.00000   0.00000  -0.00000   0.00025
 141  O 2   f 2     -0.00000  -0.00001   0.00000  -0.00000   0.00000   0.00047
 142  O 2   f 3     -0.00000   0.00001  -0.00000   0.00000  -0.00000   0.00001
 143  O 2   f 4     -0.00000  -0.00001  -0.00000  -0.00000   0.00000  -0.00009
 144  O 2   f 5     -0.00000  -0.00003  -0.00000   0.00000   0.00000   0.00011
 145  O 2   f 6      0.00000   0.00001  -0.00000   0.00000  -0.00000  -0.00112
 146  O 2   f 7     -0.00000   0.00001   0.00000  -0.00000   0.00000   0.00080
 147  O 2   f 1     -0.00000   0.00001   0.00000  -0.00000  -0.00000  -0.00010
 148  O 2   f 2     -0.00000   0.00005   0.00000   0.00000   0.00000  -0.00013
 149  O 2   f 3     -0.00000  -0.00003   0.00000  -0.00000  -0.00000  -0.00004
 150  O 2   f 4      0.00000  -0.00003  -0.00000   0.00000   0.00000  -0.00008
 151  O 2   f 5     -0.00000   0.00005   0.00000   0.00000   0.00000  -0.00011
 152  O 2   f 6      0.00000  -0.00001  -0.00000  -0.00000  -0.00000   0.00058
 153  O 2   f 7     -0.00000   0.00001   0.00000   0.00000   0.00000  -0.00031
 154  O 2   g 1     -0.00000  -0.00000   0.00000  -0.00000   0.00000   0.00007
 155  O 2   g 2      0.00000   0.00000  -0.00000   0.00000  -0.00000  -0.00009
 156  O 2   g 3     -0.00000  -0.00000  -0.00000  -0.00000   0.00000   0.00000
 157  O 2   g 4      0.00000   0.00000  -0.00000   0.00000  -0.00000  -0.00006
 158  O 2   g 5     -0.00000  -0.00000   0.00000  -0.00000   0.00000   0.00005
 159  O 2   g 6      0.00000  -0.00000  -0.00000   0.00000  -0.00000  -0.00007
 160  O 2   g 7     -0.00000   0.00000   0.00000  -0.00000  -0.00000  -0.00002
 161  O 2   g 8     -0.00000   0.00000  -0.00000  -0.00000   0.00000   0.00002
 162  O 2   g 9      0.00000   0.00000  -0.00000   0.00000  -0.00000  -0.00008
 163  O 2   g 1     -0.00000   0.00000  -0.00000   0.00000   0.00000   0.00000
 164  O 2   g 2      0.00000  -0.00001  -0.00000  -0.00000  -0.00000   0.00007
 165  O 2   g 3      0.00000   0.00001  -0.00000   0.00000  -0.00000  -0.00006
 166  O 2   g 4      0.00000  -0.00001  -0.00000  -0.00000   0.00000  -0.00004
 167  O 2   g 5     -0.00000   0.00000   0.00000   0.00000   0.00000   0.00004
 168  O 2   g 6      0.00000   0.00000   0.00000  -0.00000  -0.00000  -0.00001
 169  O 2   g 7      0.00000   0.00000  -0.00000  -0.00000  -0.00000   0.00001
 170  O 2   g 8     -0.00000  -0.00001  -0.00000   0.00000   0.00000  -0.00010
 171  O 2   g 9      0.00000  -0.00001   0.00000  -0.00000   0.00000   0.00006
 172  O 2   h 1     -0.00000   0.00000   0.00000  -0.00000   0.00000  -0.00000
 173  O 2   h 2      0.00000  -0.00000   0.00000  -0.00000  -0.00000  -0.00005
 174  O 2   h 3      0.00000  -0.00000  -0.00000  -0.00000  -0.00000   0.00001
 175  O 2   h 4      0.00000   0.00000   0.00000  -0.00000  -0.00000  -0.00002
 176  O 2   h 5     -0.00000   0.00000  -0.00000  -0.00000   0.00000   0.00004
 177  O 2   h 6     -0.00000  -0.00000   0.00000   0.00000  -0.00000   0.00001
 178  O 2   h 7      0.00000   0.00000   0.00000  -0.00000  -0.00000  -0.00001
 179  O 2   h 8     -0.00000   0.00000  -0.00000   0.00000  -0.00000   0.00004
 180  O 2   h 9     -0.00000  -0.00000   0.00000   0.00000   0.00000   0.00005
 181  O 2   h10      0.00000  -0.00000   0.00000   0.00000  -0.00000  -0.00002
 182  O 2   h11      0.00000   0.00000   0.00000  -0.00000   0.00000  -0.00002
 183  H 1   s        0.00000  -0.00000  -0.00000  -0.00000  -0.00000  -0.00026
 184  H 1   s        0.00000   0.00001  -0.00000   0.00000  -0.00000  -0.00139
 185  H 1   s       -0.00000   0.00028   0.00000  -0.00000  -0.00000   0.01121
 186  H 1   s       -0.00000  -0.00008   0.00000  -0.00000  -0.00000   0.00202
 187  H 1   s        0.00000   0.00003  -0.00000  -0.00000  -0.00000   0.00030
 188  H 1   px      -0.00000   0.00000  -0.00000   0.00000  -0.00000   0.00004
 189  H 1   py      -0.00000   0.00000  -0.00000   0.00000   0.00000   0.00021
 190  H 1   pz       0.00000  -0.00000   0.00000  -0.00000  -0.00000  -0.00010
 191  H 1   px      -0.00000  -0.00001   0.00000  -0.00000   0.00000  -0.00006
 192  H 1   py      -0.00000  -0.00001   0.00000  -0.00000  -0.00000  -0.00027
 193  H 1   pz       0.00000   0.00001  -0.00000   0.00000   0.00000   0.00013
 194  H 1   px       0.00000   0.00003  -0.00000   0.00000   0.00000  -0.00159
 195  H 1   py       0.00000  -0.00012  -0.00000   0.00000  -0.00000  -0.00787
 196  H 1   pz      -0.00000   0.00003   0.00000  -0.00000   0.00000   0.00366
 197  H 1   px       0.00000   0.00005  -0.00000   0.00000   0.00000  -0.00055
 198  H 1   py       0.00000  -0.00002  -0.00000   0.00000   0.00000  -0.00237
 199  H 1   pz      -0.00000  -0.00001   0.00000  -0.00000  -0.00000   0.00116
 200  H 1   d 1      0.00000   0.00000  -0.00000   0.00000   0.00000  -0.00004
 201  H 1   d 2     -0.00000   0.00000   0.00000  -0.00000   0.00000   0.00011
 202  H 1   d 3     -0.00000   0.00000   0.00000  -0.00000   0.00000   0.00005
 203  H 1   d 4     -0.00000  -0.00000   0.00000   0.00000  -0.00000   0.00003
 204  H 1   d 5     -0.00000   0.00000   0.00000  -0.00000   0.00000   0.00011
 205  H 1   d 1     -0.00000  -0.00000   0.00000  -0.00000  -0.00000   0.00073
 206  H 1   d 2      0.00000  -0.00002  -0.00000   0.00000  -0.00000  -0.00178
 207  H 1   d 3      0.00000  -0.00000  -0.00000   0.00000  -0.00000  -0.00071
 208  H 1   d 4      0.00000   0.00000  -0.00000   0.00000   0.00000  -0.00039
 209  H 1   d 5      0.00000  -0.00002  -0.00000   0.00000  -0.00000  -0.00185
 210  H 1   d 1     -0.00000  -0.00003   0.00000  -0.00000  -0.00000   0.00097
 211  H 1   d 2      0.00000  -0.00000  -0.00000   0.00000  -0.00000  -0.00211
 212  H 1   d 3      0.00000  -0.00000  -0.00000   0.00000  -0.00000  -0.00076
 213  H 1   d 4      0.00000   0.00002  -0.00000   0.00000  -0.00000  -0.00044
 214  H 1   d 5      0.00000  -0.00004  -0.00000   0.00000  -0.00000  -0.00212
 215  H 1   f 1     -0.00000  -0.00000   0.00000  -0.00000   0.00000   0.00017
 216  H 1   f 2     -0.00000  -0.00000   0.00000  -0.00000  -0.00000   0.00008
 217  H 1   f 3      0.00000  -0.00000   0.00000  -0.00000   0.00000   0.00003
 218  H 1   f 4      0.00000  -0.00000  -0.00000   0.00000  -0.00000  -0.00015
 219  H 1   f 5      0.00000   0.00000   0.00000   0.00000   0.00000   0.00001
 220  H 1   f 6      0.00000  -0.00000  -0.00000   0.00000  -0.00000  -0.00020
 221  H 1   f 7     -0.00000   0.00000   0.00000  -0.00000  -0.00000   0.00010
 222  H 1   f 1     -0.00000   0.00001   0.00000  -0.00000   0.00000   0.00071
 223  H 1   f 2     -0.00000  -0.00001   0.00000  -0.00000  -0.00000   0.00044
 224  H 1   f 3      0.00000  -0.00000   0.00000  -0.00000   0.00000   0.00014
 225  H 1   f 4      0.00000  -0.00000  -0.00000   0.00000  -0.00000  -0.00068
 226  H 1   f 5      0.00000   0.00000   0.00000  -0.00000   0.00000  -0.00001
 227  H 1   f 6      0.00000  -0.00001  -0.00000   0.00000  -0.00000  -0.00093
 228  H 1   f 7     -0.00000  -0.00000   0.00000  -0.00000  -0.00000   0.00048
 229  H 1   g 1      0.00000  -0.00000  -0.00000   0.00000   0.00000  -0.00006
 230  H 1   g 2     -0.00000   0.00000   0.00000  -0.00000   0.00000   0.00010
 231  H 1   g 3     -0.00000  -0.00000   0.00000   0.00000  -0.00000   0.00001
 232  H 1   g 4     -0.00000   0.00000   0.00000  -0.00000   0.00000   0.00010
 233  H 1   g 5      0.00000  -0.00000  -0.00000  -0.00000   0.00000  -0.00002
 234  H 1   g 6     -0.00000  -0.00000   0.00000  -0.00000  -0.00000   0.00002
 235  H 1   g 7      0.00000  -0.00000   0.00000  -0.00000   0.00000  -0.00001
 236  H 1   g 8     -0.00000  -0.00000   0.00000  -0.00000  -0.00000   0.00007
 237  H 1   g 9     -0.00000  -0.00000   0.00000  -0.00000   0.00000   0.00007
 238  H 2   s        0.00000   0.00001   0.00000   0.00000  -0.00000  -0.00007
 239  H 2   s        0.00000   0.00002  -0.00000   0.00000  -0.00000  -0.00188
 240  H 2   s       -0.00000  -0.00048   0.00000   0.00000   0.00000   0.00614
 241  H 2   s       -0.00000   0.00009   0.00000   0.00000   0.00000   0.00040
 242  H 2   s        0.00000  -0.00008   0.00000   0.00000   0.00000  -0.00024
 243  H 2   px       0.00000  -0.00001   0.00000   0.00000  -0.00000  -0.00011
 244  H 2   py      -0.00000   0.00000   0.00000  -0.00000  -0.00000   0.00001
 245  H 2   pz      -0.00000   0.00001  -0.00000   0.00000   0.00000   0.00006
 246  H 2   px       0.00000   0.00008  -0.00000   0.00000  -0.00000  -0.00036
 247  H 2   py       0.00000  -0.00001  -0.00000   0.00000   0.00000   0.00009
 248  H 2   pz      -0.00000  -0.00007   0.00000  -0.00000   0.00000   0.00020
 249  H 2   px      -0.00000  -0.00032   0.00000   0.00000   0.00000   0.00521
 250  H 2   py       0.00000   0.00005   0.00000  -0.00000  -0.00000  -0.00078
 251  H 2   pz       0.00000   0.00027  -0.00000  -0.00000  -0.00000  -0.00295
 252  H 2   px      -0.00000  -0.00035   0.00000   0.00000   0.00000   0.00082
 253  H 2   py       0.00000   0.00022   0.00000   0.00000  -0.00000  -0.00005
 254  H 2   pz       0.00000   0.00050  -0.00000  -0.00000  -0.00000  -0.00053
 255  H 2   d 1     -0.00000   0.00000   0.00000   0.00000   0.00000   0.00006
 256  H 2   d 2      0.00000  -0.00000  -0.00000   0.00000   0.00000  -0.00002
 257  H 2   d 3     -0.00000  -0.00002   0.00000  -0.00000   0.00000   0.00007
 258  H 2   d 4     -0.00000  -0.00000   0.00000  -0.00000   0.00000   0.00020
 259  H 2   d 5      0.00000   0.00001  -0.00000   0.00000  -0.00000  -0.00019
 260  H 2   d 1      0.00000  -0.00001  -0.00000   0.00000  -0.00000  -0.00039
 261  H 2   d 2     -0.00000   0.00000   0.00000  -0.00000   0.00000   0.00016
 262  H 2   d 3      0.00000   0.00005  -0.00000   0.00000  -0.00000  -0.00041
 263  H 2   d 4      0.00000   0.00004  -0.00000   0.00000  -0.00000  -0.00147
 264  H 2   d 5     -0.00000  -0.00006   0.00000  -0.00000   0.00000   0.00134
 265  H 2   d 1      0.00000   0.00001   0.00000   0.00000  -0.00000  -0.00051
 266  H 2   d 2      0.00000   0.00006  -0.00000  -0.00000   0.00000   0.00037
 267  H 2   d 3      0.00000  -0.00001  -0.00000  -0.00000  -0.00000  -0.00023
 268  H 2   d 4      0.00000  -0.00001  -0.00000  -0.00000  -0.00000  -0.00204
 269  H 2   d 5     -0.00000   0.00003   0.00000   0.00000   0.00000   0.00166
 270  H 2   f 1      0.00000  -0.00000  -0.00000   0.00000  -0.00000  -0.00006
 271  H 2   f 2     -0.00000  -0.00000  -0.00000   0.00000   0.00000   0.00005
 272  H 2   f 3     -0.00000   0.00000   0.00000  -0.00000   0.00000  -0.00000
 273  H 2   f 4     -0.00000   0.00001   0.00000  -0.00000   0.00000   0.00011
 274  H 2   f 5     -0.00000  -0.00000  -0.00000  -0.00000   0.00000   0.00002
 275  H 2   f 6      0.00000  -0.00001   0.00000   0.00000  -0.00000  -0.00017
 276  H 2   f 7     -0.00000  -0.00000  -0.00000   0.00000   0.00000   0.00012
 277  H 2   f 1      0.00000   0.00003  -0.00000   0.00000  -0.00000  -0.00030
 278  H 2   f 2     -0.00000  -0.00000  -0.00000  -0.00000   0.00000   0.00027
 279  H 2   f 3      0.00000  -0.00002   0.00000  -0.00000  -0.00000   0.00003
 280  H 2   f 4     -0.00000  -0.00005   0.00000  -0.00000   0.00000   0.00063
 281  H 2   f 5     -0.00000  -0.00001  -0.00000  -0.00000  -0.00000   0.00007
 282  H 2   f 6      0.00000   0.00007  -0.00000   0.00000  -0.00000  -0.00097
 283  H 2   f 7     -0.00000  -0.00003   0.00000  -0.00000   0.00000   0.00065
 284  H 2   g 1      0.00000   0.00000  -0.00000   0.00000  -0.00000  -0.00006
 285  H 2   g 2     -0.00000   0.00000  -0.00000  -0.00000   0.00000   0.00007
 286  H 2   g 3      0.00000  -0.00001   0.00000  -0.00000  -0.00000  -0.00001
 287  H 2   g 4      0.00000   0.00000  -0.00000   0.00000  -0.00000  -0.00002
 288  H 2   g 5      0.00000  -0.00000  -0.00000   0.00000  -0.00000  -0.00006
 289  H 2   g 6     -0.00000  -0.00001   0.00000  -0.00000   0.00000   0.00012
 290  H 2   g 7     -0.00000   0.00001   0.00000  -0.00000   0.00000   0.00006
 291  H 2   g 8      0.00000   0.00000  -0.00000   0.00000  -0.00000  -0.00016
 292  H 2   g 9     -0.00000  -0.00000   0.00000  -0.00000   0.00000   0.00008
 293  O 3   s       -0.00000   0.97824   0.00000  -0.00000  -0.00000   0.00000
 294  O 3   s       -0.00000   0.03057   0.00000  -0.00000  -0.00000  -0.00001
 295  O 3   s       -0.00000   0.08456   0.00000  -0.00000  -0.00000  -0.00001
 296  O 3   s       -0.00000  -0.01454  -0.00000   0.00000   0.00000  -0.00008
 297  O 3   s        0.00000  -0.00959   0.00000  -0.00000   0.00000   0.00066
 298  O 3   s        0.00000  -0.00221   0.00000  -0.00000   0.00000   0.00065
 299  O 3   px       0.00000  -0.00106  -0.00000   0.00000   0.00000  -0.00000
 300  O 3   py      -0.00000  -0.00063   0.00000   0.00000  -0.00000   0.00000
 301  O 3   pz       0.00000  -0.00006  -0.00000  -0.00000   0.00000   0.00000
 302  O 3   px       0.00000  -0.00062   0.00000  -0.00000   0.00000   0.00002
 303  O 3   py       0.00000  -0.00033  -0.00000  -0.00000   0.00000  -0.00000
 304  O 3   pz      -0.00000   0.00009   0.00000   0.00000  -0.00000  -0.00001
 305  O 3   px      -0.00000   0.00704  -0.00000   0.00000  -0.00000  -0.00008
 306  O 3   py      -0.00000   0.00429   0.00000   0.00000  -0.00000  -0.00000
 307  O 3   pz       0.00000  -0.00035  -0.00000  -0.00000   0.00000  -0.00004
 308  O 3   px      -0.00000  -0.00047  -0.00000   0.00000   0.00000  -0.00079
 309  O 3   py      -0.00000   0.00037   0.00000   0.00000  -0.00000   0.00028
 310  O 3   pz       0.00000   0.00037  -0.00000  -0.00000   0.00000   0.00043
 311  O 3   px      -0.00000  -0.00003  -0.00000   0.00000   0.00000  -0.00015
 312  O 3   py      -0.00000   0.00019   0.00000   0.00000  -0.00000  -0.00001
 313  O 3   pz      -0.00000   0.00029  -0.00000   0.00000   0.00000   0.00002
 314  O 3   d 1     -0.00000  -0.00003  -0.00000   0.00000  -0.00000  -0.00000
 315  O 3   d 2     -0.00000  -0.00016  -0.00000   0.00000   0.00000  -0.00000
 316  O 3   d 3      0.00000  -0.00017  -0.00000   0.00000   0.00000   0.00000
 317  O 3   d 4     -0.00000   0.00007  -0.00000  -0.00000  -0.00000  -0.00000
 318  O 3   d 5     -0.00000  -0.00002  -0.00000  -0.00000   0.00000   0.00000
 319  O 3   d 1     -0.00000   0.00005   0.00000  -0.00000  -0.00000   0.00001
 320  O 3   d 2      0.00000   0.00025   0.00000  -0.00000  -0.00000   0.00001
 321  O 3   d 3      0.00000   0.00027   0.00000  -0.00000  -0.00000   0.00000
 322  O 3   d 4      0.00000  -0.00010  -0.00000   0.00000   0.00000   0.00002
 323  O 3   d 5      0.00000   0.00002  -0.00000  -0.00000  -0.00000  -0.00001
 324  O 3   d 1      0.00000   0.00024  -0.00000  -0.00000   0.00000  -0.00009
 325  O 3   d 2     -0.00000   0.00157  -0.00000   0.00000  -0.00000  -0.00004
 326  O 3   d 3     -0.00000   0.00174  -0.00000   0.00000  -0.00000  -0.00005
 327  O 3   d 4     -0.00000  -0.00091   0.00000   0.00000  -0.00000  -0.00006
 328  O 3   d 5     -0.00000   0.00039   0.00000   0.00000  -0.00000   0.00007
 329  O 3   d 1      0.00000   0.00015  -0.00000  -0.00000   0.00000  -0.00008
 330  O 3   d 2     -0.00000  -0.00072  -0.00000   0.00000  -0.00000  -0.00019
 331  O 3   d 3     -0.00000  -0.00084  -0.00000   0.00000  -0.00000  -0.00029
 332  O 3   d 4      0.00000   0.00049   0.00000  -0.00000  -0.00000   0.00006
 333  O 3   d 5     -0.00000   0.00015   0.00000   0.00000  -0.00000   0.00019
 334  O 3   f 1     -0.00000   0.00012  -0.00000   0.00000   0.00000  -0.00000
 335  O 3   f 2     -0.00000   0.00005  -0.00000   0.00000  -0.00000   0.00000
 336  O 3   f 3     -0.00000   0.00003   0.00000   0.00000   0.00000   0.00000
 337  O 3   f 4      0.00000   0.00000  -0.00000  -0.00000   0.00000  -0.00000
 338  O 3   f 5      0.00000   0.00003  -0.00000   0.00000  -0.00000  -0.00000
 339  O 3   f 6      0.00000  -0.00010   0.00000  -0.00000   0.00000   0.00000
 340  O 3   f 7     -0.00000   0.00000   0.00000   0.00000  -0.00000   0.00000
 341  O 3   f 1      0.00000  -0.00090   0.00000  -0.00000   0.00000   0.00001
 342  O 3   f 2      0.00000  -0.00043   0.00000  -0.00000   0.00000   0.00000
 343  O 3   f 3      0.00000  -0.00021  -0.00000  -0.00000  -0.00000  -0.00001
 344  O 3   f 4     -0.00000   0.00001   0.00000   0.00000  -0.00000   0.00000
 345  O 3   f 5     -0.00000  -0.00027   0.00000  -0.00000   0.00000   0.00002
 346  O 3   f 6     -0.00000   0.00076  -0.00000   0.00000  -0.00000  -0.00001
 347  O 3   f 7      0.00000  -0.00004  -0.00000  -0.00000   0.00000  -0.00000
 348  O 3   f 1      0.00000   0.00034   0.00000  -0.00000  -0.00000   0.00006
 349  O 3   f 2      0.00000   0.00019   0.00000  -0.00000  -0.00000  -0.00002
 350  O 3   f 3      0.00000   0.00013   0.00000  -0.00000   0.00000  -0.00004
 351  O 3   f 4     -0.00000   0.00002   0.00000   0.00000  -0.00000  -0.00003
 352  O 3   f 5     -0.00000   0.00017   0.00000  -0.00000   0.00000   0.00005
 353  O 3   f 6     -0.00000  -0.00041  -0.00000   0.00000   0.00000   0.00002
 354  O 3   f 7      0.00000   0.00001  -0.00000  -0.00000   0.00000  -0.00004
 355  O 3   g 1     -0.00000   0.00011  -0.00000   0.00000  -0.00000  -0.00000
 356  O 3   g 2      0.00000  -0.00000  -0.00000  -0.00000   0.00000  -0.00000
 357  O 3   g 3     -0.00000   0.00000   0.00000   0.00000  -0.00000  -0.00000
 358  O 3   g 4      0.00000  -0.00008   0.00000  -0.00000   0.00000  -0.00000
 359  O 3   g 5      0.00000  -0.00002   0.00000  -0.00000  -0.00000  -0.00000
 360  O 3   g 6      0.00000   0.00004  -0.00000  -0.00000  -0.00000   0.00000
 361  O 3   g 7      0.00000   0.00000  -0.00000  -0.00000   0.00000   0.00001
 362  O 3   g 8      0.00000  -0.00007   0.00000  -0.00000   0.00000  -0.00000
 363  O 3   g 9      0.00000  -0.00006   0.00000  -0.00000   0.00000   0.00000
 364  O 3   g 1     -0.00000   0.00003  -0.00000   0.00000   0.00000  -0.00000
 365  O 3   g 2      0.00000  -0.00000  -0.00000  -0.00000   0.00000   0.00001
 366  O 3   g 3     -0.00000  -0.00002   0.00000  -0.00000   0.00000   0.00002
 367  O 3   g 4      0.00000  -0.00001   0.00000  -0.00000   0.00000   0.00001
 368  O 3   g 5     -0.00000   0.00001   0.00000   0.00000   0.00000   0.00002
 369  O 3   g 6      0.00000   0.00001  -0.00000   0.00000   0.00000   0.00000
 370  O 3   g 7      0.00000  -0.00002   0.00000   0.00000  -0.00000  -0.00005
 371  O 3   g 8      0.00000   0.00000   0.00000  -0.00000  -0.00000  -0.00000
 372  O 3   g 9      0.00000  -0.00002   0.00000  -0.00000  -0.00000  -0.00001
 373  O 3   h 1     -0.00000  -0.00002   0.00000  -0.00000   0.00000   0.00000
 374  O 3   h 2     -0.00000  -0.00001   0.00000   0.00000  -0.00000  -0.00000
 375  O 3   h 3      0.00000   0.00001  -0.00000  -0.00000   0.00000  -0.00000
 376  O 3   h 4      0.00000   0.00003  -0.00000   0.00000  -0.00000  -0.00000
 377  O 3   h 5      0.00000  -0.00001  -0.00000  -0.00000   0.00000   0.00000
 378  O 3   h 6      0.00000  -0.00000  -0.00000  -0.00000   0.00000  -0.00000
 379  O 3   h 7      0.00000  -0.00001  -0.00000   0.00000  -0.00000  -0.00000
 380  O 3   h 8      0.00000  -0.00006   0.00000  -0.00000  -0.00000   0.00000
 381  O 3   h 9     -0.00000  -0.00000  -0.00000  -0.00000   0.00000   0.00000
 382  O 3   h10      0.00000  -0.00002  -0.00000  -0.00000   0.00000   0.00000
 383  O 3   h11     -0.00000   0.00003   0.00000   0.00000   0.00000   0.00000
 384  H 3   s       -0.00000  -0.00014   0.00000  -0.00000  -0.00000   0.00000
 385  H 3   s        0.00000  -0.00146   0.00000   0.00000   0.00000   0.00005
 386  H 3   s       -0.00000   0.00624  -0.00000   0.00000   0.00000  -0.00084
 387  H 3   s       -0.00000   0.00148  -0.00000   0.00000   0.00000  -0.00059
 388  H 3   s        0.00000   0.00003  -0.00000  -0.00000  -0.00000   0.00003
 389  H 3   px      -0.00000  -0.00016   0.00000   0.00000   0.00000   0.00000
 390  H 3   py       0.00000   0.00006  -0.00000   0.00000   0.00000  -0.00000
 391  H 3   pz      -0.00000  -0.00005   0.00000  -0.00000  -0.00000  -0.00001
 392  H 3   px       0.00000  -0.00010   0.00000   0.00000   0.00000   0.00000
 393  H 3   py      -0.00000  -0.00003  -0.00000  -0.00000  -0.00000   0.00001
 394  H 3   pz       0.00000  -0.00001   0.00000   0.00000   0.00000   0.00004
 395  H 3   px      -0.00000   0.00548  -0.00000   0.00000   0.00000  -0.00026
 396  H 3   py       0.00000  -0.00152   0.00000  -0.00000  -0.00000   0.00005
 397  H 3   pz       0.00000   0.00175  -0.00000   0.00000  -0.00000  -0.00036
 398  H 3   px      -0.00000   0.00174  -0.00000   0.00000   0.00000  -0.00025
 399  H 3   py       0.00000  -0.00058   0.00000  -0.00000  -0.00000   0.00009
 400  H 3   pz      -0.00000   0.00038  -0.00000   0.00000   0.00000  -0.00026
 401  H 3   d 1     -0.00000   0.00010  -0.00000  -0.00000  -0.00000   0.00000
 402  H 3   d 2      0.00000   0.00003  -0.00000  -0.00000  -0.00000  -0.00000
 403  H 3   d 3     -0.00000   0.00009  -0.00000  -0.00000   0.00000   0.00000
 404  H 3   d 4     -0.00000  -0.00012   0.00000   0.00000   0.00000   0.00001
 405  H 3   d 5      0.00000  -0.00017   0.00000   0.00000   0.00000  -0.00000
 406  H 3   d 1     -0.00000  -0.00095   0.00000   0.00000  -0.00000  -0.00000
 407  H 3   d 2     -0.00000  -0.00030   0.00000  -0.00000   0.00000   0.00003
 408  H 3   d 3     -0.00000  -0.00080   0.00000  -0.00000  -0.00000  -0.00001
 409  H 3   d 4      0.00000   0.00106  -0.00000   0.00000  -0.00000  -0.00007
 410  H 3   d 5      0.00000   0.00146  -0.00000   0.00000   0.00000  -0.00002
 411  H 3   d 1      0.00000  -0.00123   0.00000  -0.00000  -0.00000  -0.00000
 412  H 3   d 2      0.00000  -0.00032   0.00000   0.00000   0.00000   0.00007
 413  H 3   d 3      0.00000  -0.00091   0.00000  -0.00000  -0.00000  -0.00003
 414  H 3   d 4     -0.00000   0.00111  -0.00000   0.00000  -0.00000  -0.00019
 415  H 3   d 5     -0.00000   0.00170  -0.00000   0.00000   0.00000  -0.00003
 416  H 3   f 1     -0.00000  -0.00014   0.00000   0.00000  -0.00000  -0.00000
 417  H 3   f 2     -0.00000  -0.00008   0.00000  -0.00000   0.00000   0.00000
 418  H 3   f 3     -0.00000   0.00002  -0.00000  -0.00000   0.00000   0.00000
 419  H 3   f 4     -0.00000  -0.00010   0.00000  -0.00000   0.00000   0.00001
 420  H 3   f 5     -0.00000  -0.00009   0.00000   0.00000  -0.00000  -0.00000
 421  H 3   f 6      0.00000   0.00013  -0.00000   0.00000   0.00000  -0.00001
 422  H 3   f 7      0.00000   0.00012  -0.00000   0.00000   0.00000  -0.00000
 423  H 3   f 1      0.00000  -0.00078   0.00000   0.00000  -0.00000  -0.00001
 424  H 3   f 2     -0.00000  -0.00041   0.00000   0.00000   0.00000   0.00002
 425  H 3   f 3     -0.00000   0.00014  -0.00000  -0.00000   0.00000   0.00001
 426  H 3   f 4     -0.00000  -0.00052   0.00000   0.00000   0.00000   0.00003
 427  H 3   f 5      0.00000  -0.00044   0.00000   0.00000  -0.00000  -0.00002
 428  H 3   f 6      0.00000   0.00057  -0.00000  -0.00000  -0.00000  -0.00003
 429  H 3   f 7     -0.00000   0.00059  -0.00000   0.00000   0.00000  -0.00001
 430  H 3   g 1      0.00000  -0.00013   0.00000   0.00000  -0.00000  -0.00000
 431  H 3   g 2      0.00000  -0.00010   0.00000  -0.00000   0.00000   0.00000
 432  H 3   g 3     -0.00000   0.00002  -0.00000  -0.00000   0.00000   0.00000
 433  H 3   g 4      0.00000   0.00004  -0.00000  -0.00000   0.00000  -0.00000
 434  H 3   g 5     -0.00000   0.00003  -0.00000  -0.00000   0.00000   0.00000
 435  H 3   g 6     -0.00000  -0.00012   0.00000   0.00000   0.00000   0.00001
 436  H 3   g 7      0.00000  -0.00004   0.00000   0.00000  -0.00000  -0.00000
 437  H 3   g 8      0.00000   0.00008  -0.00000  -0.00000  -0.00000  -0.00000
 438  H 3   g 9      0.00000   0.00005  -0.00000   0.00000  -0.00000  -0.00000
 439  H 4   s        0.00000  -0.00016   0.00000  -0.00000   0.00000  -0.00000
 440  H 4   s        0.00000  -0.00151   0.00000  -0.00000   0.00000   0.00002
 441  H 4   s       -0.00000   0.00740  -0.00000   0.00000  -0.00000  -0.00019
 442  H 4   s       -0.00000   0.00161  -0.00000   0.00000  -0.00000  -0.00001
 443  H 4   s        0.00000   0.00009   0.00000  -0.00000  -0.00000   0.00001
 444  H 4   px       0.00000  -0.00003   0.00000  -0.00000   0.00000  -0.00000
 445  H 4   py       0.00000  -0.00018  -0.00000  -0.00000   0.00000  -0.00000
 446  H 4   pz      -0.00000   0.00005  -0.00000  -0.00000   0.00000   0.00000
 447  H 4   px       0.00000  -0.00008  -0.00000  -0.00000  -0.00000   0.00000
 448  H 4   py      -0.00000   0.00001   0.00000  -0.00000   0.00000   0.00001
 449  H 4   pz       0.00000   0.00002  -0.00000   0.00000  -0.00000   0.00001
 450  H 4   px      -0.00000   0.00170  -0.00000   0.00000  -0.00000  -0.00002
 451  H 4   py      -0.00000   0.00608  -0.00000   0.00000  -0.00000  -0.00011
 452  H 4   pz       0.00000  -0.00208   0.00000  -0.00000   0.00000  -0.00009
 453  H 4   px      -0.00000   0.00056  -0.00000   0.00000  -0.00000   0.00004
 454  H 4   py      -0.00000   0.00180  -0.00000   0.00000  -0.00000  -0.00004
 455  H 4   pz       0.00000  -0.00082   0.00000  -0.00000   0.00000  -0.00012
 456  H 4   d 1      0.00000  -0.00010   0.00000  -0.00000   0.00000   0.00000
 457  H 4   d 2     -0.00000   0.00011  -0.00000   0.00000  -0.00000  -0.00000
 458  H 4   d 3     -0.00000   0.00008   0.00000   0.00000  -0.00000  -0.00001
 459  H 4   d 4     -0.00000   0.00003  -0.00000  -0.00000   0.00000   0.00000
 460  H 4   d 5     -0.00000   0.00017   0.00000   0.00000  -0.00000  -0.00000
 461  H 4   d 1     -0.00000   0.00090  -0.00000   0.00000  -0.00000  -0.00001
 462  H 4   d 2      0.00000  -0.00114   0.00000  -0.00000   0.00000  -0.00001
 463  H 4   d 3      0.00000  -0.00085  -0.00000  -0.00000   0.00000   0.00003
 464  H 4   d 4      0.00000  -0.00029   0.00000  -0.00000   0.00000  -0.00001
 465  H 4   d 5      0.00000  -0.00166  -0.00000  -0.00000   0.00000   0.00001
 466  H 4   d 1     -0.00000   0.00100  -0.00000   0.00000  -0.00000  -0.00001
 467  H 4   d 2      0.00000  -0.00142   0.00000  -0.00000   0.00000  -0.00006
 468  H 4   d 3      0.00000  -0.00085   0.00000  -0.00000   0.00000   0.00006
 469  H 4   d 4      0.00000  -0.00045   0.00000  -0.00000   0.00000  -0.00002
 470  H 4   d 5      0.00000  -0.00187   0.00000  -0.00000   0.00000   0.00002
 471  H 4   f 1      0.00000  -0.00014  -0.00000  -0.00000   0.00000   0.00000
 472  H 4   f 2      0.00000  -0.00007  -0.00000  -0.00000   0.00000  -0.00000
 473  H 4   f 3      0.00000  -0.00009  -0.00000  -0.00000   0.00000   0.00001
 474  H 4   f 4     -0.00000   0.00010  -0.00000   0.00000  -0.00000  -0.00000
 475  H 4   f 5      0.00000  -0.00003  -0.00000  -0.00000   0.00000   0.00001
 476  H 4   f 6     -0.00000   0.00014  -0.00000   0.00000  -0.00000   0.00000
 477  H 4   f 7      0.00000  -0.00013  -0.00000  -0.00000   0.00000   0.00000
 478  H 4   f 1      0.00000  -0.00073  -0.00000  -0.00000   0.00000  -0.00001
 479  H 4   f 2      0.00000  -0.00038   0.00000  -0.00000   0.00000   0.00000
 480  H 4   f 3      0.00000  -0.00040  -0.00000  -0.00000   0.00000   0.00002
 481  H 4   f 4     -0.00000   0.00057  -0.00000   0.00000  -0.00000   0.00001
 482  H 4   f 5      0.00000  -0.00007   0.00000  -0.00000   0.00000  -0.00000
 483  H 4   f 6     -0.00000   0.00070  -0.00000   0.00000  -0.00000   0.00001
 484  H 4   f 7      0.00000  -0.00063   0.00000  -0.00000   0.00000   0.00001
 485  H 4   g 1      0.00000  -0.00011  -0.00000  -0.00000   0.00000   0.00000
 486  H 4   g 2     -0.00000   0.00010  -0.00000   0.00000  -0.00000   0.00000
 487  H 4   g 3      0.00000  -0.00002  -0.00000  -0.00000   0.00000   0.00000
 488  H 4   g 4     -0.00000   0.00012  -0.00000   0.00000  -0.00000  -0.00000
 489  H 4   g 5     -0.00000   0.00002   0.00000   0.00000  -0.00000  -0.00000
 490  H 4   g 6     -0.00000   0.00003  -0.00000   0.00000  -0.00000   0.00000
 491  H 4   g 7     -0.00000   0.00003   0.00000   0.00000  -0.00000  -0.00000
 492  H 4   g 8     -0.00000   0.00009  -0.00000   0.00000  -0.00000  -0.00000
 493  H 4   g 9     -0.00000   0.00007   0.00000   0.00000  -0.00000   0.00000
 494  O 4   s       -0.00002   0.00000  -0.00001   0.97865  -0.00001  -0.00000
 495  O 4   s        0.00002   0.00000  -0.00001   0.03118   0.00000  -0.00000
 496  O 4   s        0.00007   0.00000  -0.00003   0.08538   0.00001  -0.00000
 497  O 4   s       -0.00022   0.00000   0.00013  -0.01596  -0.00007   0.00000
 498  O 4   s       -0.00036  -0.00000  -0.00003  -0.01578   0.00034   0.00000
 499  O 4   s       -0.00101  -0.00000  -0.00023  -0.00298   0.00076  -0.00000
 500  O 4   px       0.00002  -0.00000  -0.00000   0.00056  -0.00000   0.00000
 501  O 4   py       0.00000  -0.00000  -0.00000   0.00052  -0.00000  -0.00000
 502  O 4   pz      -0.00000   0.00000  -0.00000  -0.00079  -0.00000  -0.00000
 503  O 4   px      -0.00010   0.00000   0.00000   0.00044  -0.00000  -0.00000
 504  O 4   py      -0.00001   0.00000   0.00001   0.00010   0.00000   0.00000
 505  O 4   pz      -0.00000  -0.00000   0.00000  -0.00061   0.00001   0.00000
 506  O 4   px       0.00003  -0.00000   0.00004  -0.00555   0.00009   0.00000
 507  O 4   py       0.00026  -0.00000  -0.00002  -0.00284  -0.00008  -0.00000
 508  O 4   pz       0.00026   0.00000  -0.00006   0.00728  -0.00007  -0.00000
 509  O 4   px      -0.00024  -0.00000  -0.00010  -0.00030   0.00003  -0.00000
 510  O 4   py      -0.00046   0.00000  -0.00005  -0.00063   0.00026  -0.00000
 511  O 4   pz      -0.00007   0.00000   0.00023   0.00089  -0.00010  -0.00000
 512  O 4   px      -0.00012  -0.00000  -0.00012   0.00003   0.00027  -0.00000
 513  O 4   py      -0.00017   0.00000   0.00013  -0.00074  -0.00015  -0.00000
 514  O 4   pz       0.00001   0.00000  -0.00007  -0.00012  -0.00012   0.00000
 515  O 4   d 1     -0.00000   0.00000   0.00000  -0.00018   0.00000  -0.00000
 516  O 4   d 2     -0.00000   0.00000   0.00000  -0.00009  -0.00000   0.00000
 517  O 4   d 3      0.00000  -0.00000   0.00000  -0.00007  -0.00000   0.00000
 518  O 4   d 4     -0.00000  -0.00000   0.00000  -0.00011  -0.00000   0.00000
 519  O 4   d 5      0.00000  -0.00000   0.00000  -0.00007   0.00000   0.00000
 520  O 4   d 1      0.00002  -0.00000  -0.00000   0.00029   0.00000   0.00000
 521  O 4   d 2      0.00000  -0.00000  -0.00001   0.00017   0.00000  -0.00000
 522  O 4   d 3      0.00001   0.00000  -0.00000   0.00009   0.00001  -0.00000
 523  O 4   d 4      0.00003  -0.00000  -0.00000   0.00019   0.00000  -0.00000
 524  O 4   d 5     -0.00004   0.00000  -0.00000   0.00009  -0.00000  -0.00000
 525  O 4   d 1      0.00005   0.00000   0.00000   0.00250  -0.00003  -0.00000
 526  O 4   d 2     -0.00009   0.00000   0.00004   0.00083  -0.00001   0.00000
 527  O 4   d 3     -0.00006  -0.00000  -0.00000   0.00131  -0.00003   0.00000
 528  O 4   d 4      0.00001   0.00000  -0.00002   0.00163  -0.00003  -0.00000
 529  O 4   d 5      0.00025   0.00000   0.00003   0.00081   0.00001   0.00000
 530  O 4   d 1     -0.00013   0.00000   0.00011  -0.00051   0.00003  -0.00000
 531  O 4   d 2      0.00016   0.00000   0.00012  -0.00051  -0.00013   0.00000
 532  O 4   d 3      0.00014  -0.00000   0.00007   0.00006   0.00002   0.00000
 533  O 4   d 4     -0.00017   0.00000   0.00001  -0.00053   0.00010   0.00000
 534  O 4   d 5      0.00008  -0.00000  -0.00001   0.00030  -0.00019   0.00000
 535  O 4   f 1      0.00000  -0.00000  -0.00000  -0.00013   0.00000  -0.00000
 536  O 4   f 2      0.00000   0.00000   0.00000   0.00008  -0.00000  -0.00000
 537  O 4   f 3     -0.00000   0.00000   0.00000  -0.00000   0.00000  -0.00000
 538  O 4   f 4     -0.00000   0.00000  -0.00000   0.00010   0.00000  -0.00000
 539  O 4   f 5      0.00001  -0.00000   0.00000  -0.00001   0.00000   0.00000
 540  O 4   f 6      0.00001   0.00000   0.00000   0.00002  -0.00000   0.00000
 541  O 4   f 7     -0.00002  -0.00000  -0.00000   0.00003  -0.00000  -0.00000
 542  O 4   f 1     -0.00001   0.00000  -0.00000   0.00101  -0.00001  -0.00000
 543  O 4   f 2     -0.00002  -0.00000  -0.00000  -0.00070   0.00000   0.00000
 544  O 4   f 3      0.00001  -0.00000  -0.00000  -0.00003  -0.00000   0.00000
 545  O 4   f 4      0.00001  -0.00000   0.00000  -0.00084   0.00000   0.00000
 546  O 4   f 5     -0.00003   0.00000  -0.00000   0.00002  -0.00000  -0.00000
 547  O 4   f 6     -0.00006  -0.00000  -0.00000  -0.00022  -0.00000  -0.00000
 548  O 4   f 7      0.00008   0.00000   0.00000  -0.00026   0.00000   0.00000
 549  O 4   f 1      0.00000   0.00000   0.00004  -0.00034  -0.00002   0.00000
 550  O 4   f 2      0.00002  -0.00000  -0.00000   0.00020   0.00001   0.00000
 551  O 4   f 3      0.00003  -0.00000  -0.00002   0.00034   0.00002   0.00000
 552  O 4   f 4      0.00000  -0.00000  -0.00003   0.00040   0.00002  -0.00000
 553  O 4   f 5      0.00004   0.00000   0.00003   0.00004  -0.00001   0.00000
 554  O 4   f 6     -0.00015  -0.00000  -0.00005   0.00000   0.00005  -0.00000
 555  O 4   f 7      0.00005   0.00000  -0.00001   0.00016  -0.00002   0.00000
 556  O 4   g 1     -0.00000   0.00000  -0.00000   0.00003  -0.00000  -0.00000
 557  O 4   g 2      0.00000  -0.00000   0.00000  -0.00016  -0.00000   0.00000
 558  O 4   g 3     -0.00000  -0.00000  -0.00000   0.00001  -0.00000   0.00000
 559  O 4   g 4      0.00000  -0.00000  -0.00000  -0.00003  -0.00000  -0.00000
 560  O 4   g 5     -0.00000   0.00000   0.00000   0.00006   0.00000   0.00000
 561  O 4   g 6      0.00000  -0.00000   0.00000  -0.00005   0.00000   0.00000
 562  O 4   g 7     -0.00000   0.00000  -0.00000   0.00002   0.00000   0.00000
 563  O 4   g 8      0.00000   0.00000   0.00000   0.00004   0.00000   0.00000
 564  O 4   g 9      0.00000  -0.00000  -0.00000  -0.00002  -0.00000  -0.00000
 565  O 4   g 1     -0.00001   0.00000   0.00000  -0.00003   0.00000   0.00000
 566  O 4   g 2      0.00000  -0.00000  -0.00001  -0.00003   0.00001  -0.00000
 567  O 4   g 3      0.00002   0.00000   0.00000   0.00003   0.00000  -0.00000
 568  O 4   g 4     -0.00001   0.00000   0.00000  -0.00001   0.00001  -0.00000
 569  O 4   g 5      0.00001   0.00000   0.00000  -0.00004  -0.00000  -0.00000
 570  O 4   g 6      0.00002  -0.00000  -0.00000   0.00003   0.00000  -0.00000
 571  O 4   g 7      0.00003   0.00000   0.00001  -0.00005  -0.00000  -0.00000
 572  O 4   g 8     -0.00005  -0.00000  -0.00000  -0.00000  -0.00000  -0.00000
 573  O 4   g 9     -0.00001   0.00000   0.00000  -0.00000   0.00000  -0.00000
 574  O 4   h 1     -0.00000  -0.00000  -0.00000  -0.00001   0.00000  -0.00000
 575  O 4   h 2      0.00001  -0.00000  -0.00000  -0.00001  -0.00000  -0.00000
 576  O 4   h 3     -0.00000   0.00000   0.00000   0.00004   0.00000  -0.00000
 577  O 4   h 4     -0.00001   0.00000   0.00000   0.00003  -0.00000  -0.00000
 578  O 4   h 5      0.00000   0.00000   0.00000   0.00002  -0.00000  -0.00000
 579  O 4   h 6     -0.00000  -0.00000  -0.00000   0.00003  -0.00000  -0.00000
 580  O 4   h 7     -0.00001   0.00000  -0.00000   0.00002  -0.00000   0.00000
 581  O 4   h 8      0.00000  -0.00000  -0.00000   0.00001  -0.00000   0.00000
 582  O 4   h 9      0.00000  -0.00000   0.00000  -0.00002  -0.00000   0.00000
 583  O 4   h10      0.00001  -0.00000   0.00000   0.00002  -0.00000   0.00000
 584  O 4   h11     -0.00001  -0.00000   0.00000   0.00005  -0.00000  -0.00000
 585  H 5   s       -0.00002  -0.00000  -0.00000  -0.00016   0.00000   0.00000
 586  H 5   s       -0.00003  -0.00000   0.00003  -0.00212   0.00002   0.00000
 587  H 5   s        0.00007   0.00000   0.00005   0.01069   0.00006  -0.00000
 588  H 5   s        0.00039   0.00000   0.00025   0.00235  -0.00076   0.00000
 589  H 5   s       -0.00007   0.00000   0.00000  -0.00072  -0.00004   0.00000
 590  H 5   px      -0.00007   0.00000  -0.00000   0.00017  -0.00000   0.00000
 591  H 5   py       0.00002  -0.00000  -0.00000  -0.00009   0.00000  -0.00000
 592  H 5   pz       0.00003  -0.00000   0.00000  -0.00008   0.00000   0.00000
 593  H 5   px       0.00032  -0.00000  -0.00001   0.00001  -0.00000  -0.00000
 594  H 5   py      -0.00009  -0.00000   0.00001   0.00002  -0.00000   0.00000
 595  H 5   pz      -0.00012   0.00000   0.00000  -0.00009   0.00000  -0.00000
 596  H 5   px      -0.00062  -0.00000   0.00003  -0.00696   0.00007   0.00000
 597  H 5   py      -0.00001   0.00000  -0.00003   0.00343  -0.00000  -0.00000
 598  H 5   pz       0.00017   0.00000   0.00003   0.00410  -0.00005  -0.00000
 599  H 5   px      -0.00005  -0.00000   0.00002  -0.00131   0.00025   0.00000
 600  H 5   py       0.00025   0.00000  -0.00000   0.00086  -0.00010  -0.00000
 601  H 5   pz       0.00022   0.00000   0.00009   0.00090  -0.00018   0.00000
 602  H 5   d 1      0.00002  -0.00000  -0.00000   0.00015   0.00000  -0.00000
 603  H 5   d 2      0.00001   0.00000   0.00000  -0.00010   0.00000   0.00000
 604  H 5   d 3      0.00002   0.00000   0.00000   0.00002  -0.00000   0.00000
 605  H 5   d 4      0.00002   0.00000  -0.00000   0.00017  -0.00000  -0.00000
 606  H 5   d 5     -0.00004  -0.00000   0.00000  -0.00009   0.00000   0.00000
 607  H 5   d 1     -0.00004  -0.00000   0.00001  -0.00163   0.00001   0.00000
 608  H 5   d 2     -0.00006   0.00000  -0.00000   0.00094  -0.00001  -0.00000
 609  H 5   d 3     -0.00010  -0.00000   0.00000  -0.00043   0.00001  -0.00000
 610  H 5   d 4     -0.00007  -0.00000  -0.00000  -0.00177   0.00001   0.00000
 611  H 5   d 5      0.00023   0.00000   0.00000   0.00102  -0.00001  -0.00000
 612  H 5   d 1      0.00020  -0.00000   0.00005  -0.00187   0.00005   0.00000
 613  H 5   d 2      0.00010   0.00000  -0.00001   0.00117  -0.00003   0.00000
 614  H 5   d 3      0.00018   0.00000   0.00007  -0.00092  -0.00000   0.00000
 615  H 5   d 4     -0.00006  -0.00000  -0.00000  -0.00236   0.00010  -0.00000
 616  H 5   d 5     -0.00013   0.00000  -0.00003   0.00200  -0.00005  -0.00000
 617  H 5   f 1     -0.00002   0.00000  -0.00000   0.00016   0.00000  -0.00000
 618  H 5   f 2      0.00002  -0.00000  -0.00000  -0.00017  -0.00000   0.00000
 619  H 5   f 3     -0.00000   0.00000   0.00000   0.00000  -0.00000  -0.00000
 620  H 5   f 4      0.00002   0.00000  -0.00000  -0.00014  -0.00000   0.00000
 621  H 5   f 5     -0.00001  -0.00000  -0.00000  -0.00001  -0.00000   0.00000
 622  H 5   f 6     -0.00001   0.00000   0.00000   0.00013   0.00000  -0.00000
 623  H 5   f 7      0.00004  -0.00000  -0.00000  -0.00003  -0.00000   0.00000
 624  H 5   f 1      0.00014   0.00000  -0.00001   0.00100  -0.00001  -0.00000
 625  H 5   f 2     -0.00006  -0.00000   0.00001  -0.00102   0.00002   0.00000
 626  H 5   f 3      0.00001   0.00000   0.00001   0.00003  -0.00000   0.00000
 627  H 5   f 4     -0.00009  -0.00000   0.00002  -0.00078   0.00001   0.00000
 628  H 5   f 5      0.00012  -0.00000  -0.00000  -0.00012   0.00001  -0.00000
 629  H 5   f 6      0.00015   0.00000  -0.00001   0.00068  -0.00002  -0.00000
 630  H 5   f 7     -0.00030  -0.00000  -0.00000  -0.00010   0.00000  -0.00000
 631  H 5   g 1     -0.00001  -0.00000   0.00000  -0.00011   0.00000   0.00000
 632  H 5   g 2     -0.00000   0.00000  -0.00000   0.00016  -0.00000  -0.00000
 633  H 5   g 3      0.00000  -0.00000  -0.00000  -0.00004   0.00000   0.00000
 634  H 5   g 4      0.00000  -0.00000   0.00000  -0.00006   0.00000  -0.00000
 635  H 5   g 5      0.00000  -0.00000   0.00000  -0.00007   0.00000   0.00000
 636  H 5   g 6      0.00000   0.00000  -0.00000   0.00010  -0.00000  -0.00000
 637  H 5   g 7     -0.00000   0.00000  -0.00000   0.00004  -0.00000  -0.00000
 638  H 5   g 8     -0.00001  -0.00000  -0.00000  -0.00002   0.00000   0.00000
 639  H 5   g 9      0.00000  -0.00000   0.00000  -0.00004   0.00000  -0.00000
 640  H 6   s       -0.00000  -0.00000  -0.00000  -0.00023   0.00000   0.00000
 641  H 6   s       -0.00001   0.00000   0.00004  -0.00134  -0.00002  -0.00000
 642  H 6   s        0.00063   0.00000   0.00028   0.00986  -0.00045   0.00000
 643  H 6   s        0.00037  -0.00000  -0.00016   0.00314   0.00005   0.00000
 644  H 6   s       -0.00000  -0.00000  -0.00002   0.00036   0.00004   0.00000
 645  H 6   px       0.00000  -0.00000  -0.00000  -0.00002   0.00000   0.00000
 646  H 6   py      -0.00000   0.00000   0.00000   0.00020  -0.00000   0.00000
 647  H 6   pz       0.00000  -0.00000  -0.00000  -0.00010  -0.00000   0.00000
 648  H 6   px      -0.00002  -0.00000   0.00001   0.00003  -0.00001  -0.00000
 649  H 6   py      -0.00000  -0.00000  -0.00001  -0.00025   0.00001  -0.00000
 650  H 6   pz       0.00000   0.00000   0.00002   0.00007  -0.00000  -0.00000
 651  H 6   px       0.00021   0.00000   0.00000   0.00085  -0.00001   0.00000
 652  H 6   py      -0.00019  -0.00000  -0.00009  -0.00670   0.00008  -0.00000
 653  H 6   pz       0.00010  -0.00000  -0.00002   0.00428  -0.00005   0.00000
 654  H 6   px       0.00004  -0.00000   0.00001   0.00051  -0.00009   0.00000
 655  H 6   py      -0.00009   0.00000   0.00005  -0.00240  -0.00000  -0.00000
 656  H 6   pz       0.00009  -0.00000  -0.00004   0.00180   0.00007   0.00000
 657  H 6   d 1      0.00001   0.00000   0.00000   0.00001   0.00000   0.00000
 658  H 6   d 2     -0.00000   0.00000  -0.00000   0.00013  -0.00000   0.00000
 659  H 6   d 3      0.00000   0.00000   0.00000   0.00002   0.00000  -0.00000
 660  H 6   d 4     -0.00000  -0.00000  -0.00000  -0.00001  -0.00000  -0.00000
 661  H 6   d 5     -0.00000   0.00000   0.00000   0.00010   0.00000  -0.00000
 662  H 6   d 1     -0.00006  -0.00000  -0.00001  -0.00035   0.00000  -0.00000
 663  H 6   d 2     -0.00001  -0.00000  -0.00000  -0.00196   0.00001  -0.00000
 664  H 6   d 3     -0.00002  -0.00000  -0.00001  -0.00030  -0.00000   0.00000
 665  H 6   d 4      0.00002   0.00000   0.00000   0.00021   0.00001   0.00000
 666  H 6   d 5     -0.00001  -0.00000  -0.00001  -0.00161  -0.00000   0.00000
 667  H 6   d 1     -0.00005  -0.00000   0.00000  -0.00058   0.00001  -0.00000
 668  H 6   d 2     -0.00000   0.00000   0.00004  -0.00240  -0.00006  -0.00000
 669  H 6   d 3     -0.00001  -0.00000  -0.00002  -0.00020   0.00001   0.00000
 670  H 6   d 4      0.00006  -0.00000  -0.00001   0.00046  -0.00004   0.00000
 671  H 6   d 5     -0.00001  -0.00000   0.00002  -0.00187  -0.00001   0.00000
 672  H 6   f 1     -0.00000   0.00000   0.00000   0.00016  -0.00000  -0.00000
 673  H 6   f 2     -0.00001  -0.00000  -0.00000  -0.00005  -0.00000  -0.00000
 674  H 6   f 3      0.00000   0.00000   0.00000  -0.00005   0.00000  -0.00000
 675  H 6   f 4     -0.00000  -0.00000  -0.00000  -0.00014   0.00000  -0.00000
 676  H 6   f 5     -0.00000   0.00000  -0.00000  -0.00000   0.00000   0.00000
 677  H 6   f 6     -0.00001  -0.00000  -0.00000  -0.00022   0.00000  -0.00000
 678  H 6   f 7     -0.00000  -0.00000  -0.00000  -0.00005   0.00000  -0.00000
 679  H 6   f 1      0.00000   0.00000  -0.00001   0.00066   0.00001  -0.00000
 680  H 6   f 2     -0.00002  -0.00000   0.00000  -0.00027   0.00001  -0.00000
 681  H 6   f 3      0.00001   0.00000   0.00001  -0.00023  -0.00001  -0.00000
 682  H 6   f 4     -0.00001  -0.00000   0.00001  -0.00063  -0.00001   0.00000
 683  H 6   f 5      0.00001  -0.00000   0.00000   0.00003  -0.00000   0.00000
 684  H 6   f 6      0.00002   0.00000   0.00001  -0.00099  -0.00001   0.00000
 685  H 6   f 7     -0.00003  -0.00000   0.00000  -0.00029  -0.00000  -0.00000
 686  H 6   g 1      0.00000   0.00000  -0.00000   0.00004   0.00000   0.00000
 687  H 6   g 2     -0.00000  -0.00000  -0.00000   0.00012   0.00000  -0.00000
 688  H 6   g 3     -0.00000   0.00000   0.00000  -0.00001   0.00000  -0.00000
 689  H 6   g 4      0.00000   0.00000  -0.00000   0.00007  -0.00000  -0.00000
 690  H 6   g 5      0.00000   0.00000   0.00000  -0.00006  -0.00000  -0.00000
 691  H 6   g 6     -0.00000  -0.00000   0.00000  -0.00001   0.00000  -0.00000
 692  H 6   g 7      0.00000   0.00000   0.00000  -0.00006  -0.00000  -0.00000
 693  H 6   g 8     -0.00000  -0.00000   0.00000  -0.00004  -0.00000  -0.00000
 694  H 6   g 9     -0.00000   0.00000  -0.00000   0.00007   0.00000  -0.00000
 695  O 5   s       -0.00001   0.00000  -0.97844   0.00001  -0.00000   0.00000
 696  O 5   s       -0.00000   0.00000  -0.03087   0.00001  -0.00000   0.00000
 697  O 5   s        0.00000   0.00000  -0.08494   0.00002  -0.00001   0.00000
 698  O 5   s       -0.00008  -0.00000   0.01522   0.00002   0.00012   0.00000
 699  O 5   s        0.00037   0.00000   0.01300  -0.00041  -0.00040  -0.00000
 700  O 5   s        0.00070   0.00000   0.00335  -0.00058  -0.00027  -0.00000
[...]
1114  H 11  d 1     -0.00000   0.00010   0.00004  -0.00000
1115  H 11  d 2     -0.00000   0.00014  -0.00028   0.00000
1116  H 11  d 3      0.00000   0.00007   0.00047   0.00000
1117  H 11  d 4      0.00000   0.00001   0.00013   0.00000
1118  H 11  d 5     -0.00000  -0.00001  -0.00008  -0.00000
1119  H 11  d 1      0.00000  -0.00129   0.00441   0.00000
1120  H 11  d 2      0.00000  -0.00144   0.00462   0.00000
1121  H 11  d 3     -0.00000  -0.00025  -0.00350  -0.00000
1122  H 11  d 4     -0.00000  -0.00112   0.00233   0.00000
1123  H 11  d 5      0.00000  -0.00021   0.00041   0.00000
1124  H 11  d 1     -0.00000   0.00041  -0.00006   0.00000
1125  H 11  d 2     -0.00000   0.00000  -0.00063   0.00000
1126  H 11  d 3     -0.00000   0.00059   0.00837   0.00000
1127  H 11  d 4     -0.00000  -0.00074  -0.00188   0.00000
1128  H 11  d 5      0.00000   0.00020  -0.01169   0.00000
1129  H 11  f 1      0.00000   0.00010  -0.00058  -0.00000
1130  H 11  f 2      0.00000   0.00023  -0.00085  -0.00000
1131  H 11  f 3      0.00000   0.00001  -0.00018   0.00000
1132  H 11  f 4      0.00000  -0.00013   0.00062   0.00000
1133  H 11  f 5      0.00000   0.00009  -0.00007   0.00000
1134  H 11  f 6     -0.00000   0.00007  -0.00023  -0.00000
1135  H 11  f 7      0.00000  -0.00008   0.00030   0.00000
1136  H 11  f 1     -0.00000  -0.00021   0.00215  -0.00000
1137  H 11  f 2      0.00000  -0.00008   0.00185  -0.00000
1138  H 11  f 3      0.00000   0.00030   0.00031  -0.00000
1139  H 11  f 4     -0.00000   0.00016  -0.00194   0.00000
1140  H 11  f 5      0.00000   0.00009   0.00009  -0.00000
1141  H 11  f 6     -0.00000  -0.00041   0.00299  -0.00000
1142  H 11  f 7     -0.00000  -0.00008   0.00061  -0.00000
1143  H 11  g 1      0.00000   0.00004  -0.00007   0.00000
1144  H 11  g 2      0.00000  -0.00001  -0.00014   0.00000
1145  H 11  g 3     -0.00000  -0.00004   0.00002   0.00000
1146  H 11  g 4     -0.00000   0.00000  -0.00002  -0.00000
1147  H 11  g 5      0.00000   0.00002   0.00002  -0.00000
1148  H 11  g 6     -0.00000  -0.00001   0.00009  -0.00000
1149  H 11  g 7      0.00000  -0.00001  -0.00010   0.00000
1150  H 11  g 8      0.00000   0.00006  -0.00018  -0.00000
1151  H 11  g 9     -0.00000   0.00003  -0.00004  -0.00000
1152  H 12  s       -0.00000  -0.00139   0.00630   0.00000
1153  H 12  s       -0.00000  -0.00072   0.00490   0.00000
1154  H 12  s        0.00000  -0.05554   0.27022   0.00000
1155  H 12  s        0.00000  -0.08505   0.03832   0.00000
1156  H 12  s       -0.00000  -0.01689   0.72408   0.00000
1157  H 12  px      -0.00000   0.00009  -0.00057  -0.00000
1158  H 12  py      -0.00000  -0.00007   0.00146   0.00000
1159  H 12  pz       0.00000   0.00016  -0.00216  -0.00000
1160  H 12  px       0.00000   0.00038  -0.00079  -0.00000
1161  H 12  py       0.00000  -0.00012  -0.00353  -0.00000
1162  H 12  pz      -0.00000  -0.00059   0.00382  -0.00000
1163  H 12  px       0.00000  -0.00440   0.02183  -0.00000
1164  H 12  py      -0.00000   0.01148  -0.01186  -0.00000
1165  H 12  pz       0.00000  -0.00951   0.02518   0.00000
1166  H 12  px       0.00000  -0.01379   0.00445   0.00000
1167  H 12  py      -0.00000   0.02131  -0.02610  -0.00000
1168  H 12  pz       0.00000  -0.03328   0.01947   0.00000
1169  H 12  d 1     -0.00000   0.00003   0.00017  -0.00000
1170  H 12  d 2      0.00000  -0.00009   0.00022   0.00000
1171  H 12  d 3      0.00000  -0.00005  -0.00031  -0.00000
1172  H 12  d 4      0.00000  -0.00005  -0.00023  -0.00000
1173  H 12  d 5      0.00000  -0.00013  -0.00024   0.00000
1174  H 12  d 1      0.00000   0.00038  -0.00282   0.00000
1175  H 12  d 2     -0.00000   0.00178  -0.00539   0.00000
1176  H 12  d 3      0.00000  -0.00033   0.00441   0.00000
1177  H 12  d 4     -0.00000  -0.00013   0.00445  -0.00000
1178  H 12  d 5     -0.00000   0.00104   0.00039  -0.00000
1179  H 12  d 1     -0.00000   0.00370  -0.00212  -0.00000
1180  H 12  d 2     -0.00000   0.00399   0.00784  -0.00000
1181  H 12  d 3      0.00000   0.00139  -0.00821  -0.00000
1182  H 12  d 4     -0.00000  -0.00439   0.00240  -0.00000
1183  H 12  d 5     -0.00000   0.00071   0.00331  -0.00000
1184  H 12  f 1      0.00000  -0.00003   0.00006   0.00000
1185  H 12  f 2     -0.00000   0.00015  -0.00065   0.00000
1186  H 12  f 3     -0.00000   0.00020  -0.00084   0.00000
1187  H 12  f 4     -0.00000  -0.00004   0.00012   0.00000
1188  H 12  f 5     -0.00000  -0.00009   0.00079  -0.00000
1189  H 12  f 6     -0.00000   0.00013  -0.00028   0.00000
1190  H 12  f 7     -0.00000   0.00007  -0.00008   0.00000
1191  H 12  f 1      0.00000   0.00014  -0.00132   0.00000
1192  H 12  f 2      0.00000   0.00032   0.00035   0.00000
1193  H 12  f 3     -0.00000  -0.00002   0.00289   0.00000
1194  H 12  f 4      0.00000   0.00102  -0.00090  -0.00000
1195  H 12  f 5     -0.00000   0.00027  -0.00149   0.00000
1196  H 12  f 6     -0.00000   0.00016   0.00242  -0.00000
1197  H 12  f 7      0.00000   0.00033  -0.00034  -0.00000
1198  H 12  g 1      0.00000  -0.00002  -0.00002   0.00000
1199  H 12  g 2      0.00000  -0.00000  -0.00013   0.00000
1200  H 12  g 3      0.00000   0.00004  -0.00009   0.00000
1201  H 12  g 4     -0.00000  -0.00002   0.00010   0.00000
1202  H 12  g 5      0.00000   0.00008  -0.00007   0.00000
1203  H 12  g 6     -0.00000   0.00004   0.00000  -0.00000
1204  H 12  g 7     -0.00000   0.00005   0.00014   0.00000
1205  H 12  g 8      0.00000   0.00006  -0.00002   0.00000
1206  H 12  g 9      0.00000   0.00002  -0.00003   0.00000
1207  O 7   s        0.00000   0.00020  -0.00055   0.00000
1208  O 7   s        0.00000  -0.03679   0.03032  -0.00000
1209  O 7   s        0.00000  -0.00257   0.00074  -0.00000
1210  O 7   s       -0.00000  -0.04211   0.05225  -0.00000
1211  O 7   s        0.00000   0.00637  -0.09692   0.00000
1212  O 7   s        0.00000  -0.14069  -0.38256   0.00000
1213  O 7   px      -0.00000  -0.00555   0.02516  -0.00000
1214  O 7   py       0.00000  -0.03101   0.00892  -0.00000
1215  O 7   pz      -0.00000   0.02283   0.00159   0.00000
1216  O 7   px      -0.00000  -0.00855   0.04209  -0.00000
1217  O 7   py       0.00000  -0.05065   0.01626  -0.00000
1218  O 7   pz      -0.00000   0.03545   0.00260   0.00000
1219  O 7   px      -0.00000  -0.00892   0.05695  -0.00000
1220  O 7   py       0.00000  -0.07371   0.00825  -0.00000
1221  O 7   pz      -0.00000   0.07695  -0.00232   0.00000
1222  O 7   px       0.00000   0.00031  -0.01452   0.00000
1223  O 7   py       0.00000  -0.06573  -0.10902   0.00000
1224  O 7   pz      -0.00000   0.07535  -0.02354   0.00000
1225  O 7   px       0.00000  -0.15665   0.03818  -0.00000
1226  O 7   py       0.00000  -0.14713  -0.13517   0.00000
1227  O 7   pz      -0.00000   0.29668  -0.07648   0.00000
1228  O 7   d 1     -0.00000   0.00010  -0.00008   0.00000
1229  O 7   d 2     -0.00000   0.00002   0.00001  -0.00000
1230  O 7   d 3      0.00000  -0.00005  -0.00007   0.00000
1231  O 7   d 4     -0.00000   0.00001  -0.00003  -0.00000
1232  O 7   d 5     -0.00000  -0.00012   0.00010  -0.00000
1233  O 7   d 1      0.00000  -0.00055   0.00068  -0.00000
1234  O 7   d 2      0.00000  -0.00111   0.00113   0.00000
1235  O 7   d 3     -0.00000   0.00084  -0.00112  -0.00000
1236  O 7   d 4      0.00000  -0.00036   0.00028   0.00000
1237  O 7   d 5      0.00000   0.00055   0.00027   0.00000
1238  O 7   d 1      0.00000   0.00202  -0.00634   0.00000
1239  O 7   d 2     -0.00000   0.00872   0.00080   0.00000
1240  O 7   d 3      0.00000   0.00733  -0.00252   0.00000
1241  O 7   d 4     -0.00000   0.00757  -0.00088   0.00000
1242  O 7   d 5     -0.00000   0.00158   0.00532  -0.00000
1243  O 7   d 1      0.00000  -0.02615  -0.01699   0.00000
1244  O 7   d 2     -0.00000   0.04487  -0.00153  -0.00000
1245  O 7   d 3      0.00000   0.01881  -0.00460  -0.00000
1246  O 7   d 4     -0.00000   0.01073  -0.01101  -0.00000
1247  O 7   d 5     -0.00000   0.02925   0.03587  -0.00000
1248  O 7   f 1     -0.00000  -0.00007   0.00001  -0.00000
1249  O 7   f 2      0.00000  -0.00012  -0.00003   0.00000
1250  O 7   f 3     -0.00000  -0.00027   0.00008  -0.00000
1251  O 7   f 4     -0.00000   0.00010  -0.00001  -0.00000
1252  O 7   f 5     -0.00000  -0.00010  -0.00004  -0.00000
1253  O 7   f 6     -0.00000  -0.00003   0.00012   0.00000
1254  O 7   f 7     -0.00000  -0.00002  -0.00010   0.00000
1255  O 7   f 1      0.00000   0.00046   0.00022   0.00000
1256  O 7   f 2     -0.00000   0.00100   0.00031   0.00000
1257  O 7   f 3      0.00000   0.00119  -0.00073   0.00000
1258  O 7   f 4      0.00000   0.00029  -0.00067   0.00000
1259  O 7   f 5      0.00000   0.00134   0.00008   0.00000
1260  O 7   f 6      0.00000   0.00006  -0.00094  -0.00000
1261  O 7   f 7      0.00000   0.00038   0.00076  -0.00000
1262  O 7   f 1     -0.00000   0.00340   0.00354  -0.00000
1263  O 7   f 2     -0.00000   0.00764  -0.00521  -0.00000
1264  O 7   f 3      0.00000   0.01439  -0.00192  -0.00000
1265  O 7   f 4      0.00000  -0.00974  -0.00048   0.00000
1266  O 7   f 5      0.00000   0.00562   0.00169  -0.00000
1267  O 7   f 6      0.00000  -0.00425   0.00221   0.00000
1268  O 7   f 7     -0.00000   0.00865   0.00048  -0.00000
1269  O 7   g 1     -0.00000  -0.00009   0.00003   0.00000
1270  O 7   g 2     -0.00000   0.00007  -0.00002   0.00000
1271  O 7   g 3     -0.00000  -0.00018  -0.00001  -0.00000
1272  O 7   g 4      0.00000  -0.00002   0.00004  -0.00000
1273  O 7   g 5     -0.00000   0.00026  -0.00000   0.00000
1274  O 7   g 6     -0.00000   0.00015  -0.00004   0.00000
1275  O 7   g 7      0.00000   0.00011   0.00002   0.00000
1276  O 7   g 8      0.00000  -0.00002  -0.00007  -0.00000
1277  O 7   g 9     -0.00000  -0.00002  -0.00000  -0.00000
1278  O 7   g 1     -0.00000   0.00163   0.00007  -0.00000
1279  O 7   g 2      0.00000  -0.00069  -0.00034  -0.00000
1280  O 7   g 3      0.00000   0.00210  -0.00017  -0.00000
1281  O 7   g 4      0.00000   0.00022  -0.00103   0.00000
1282  O 7   g 5     -0.00000  -0.00165   0.00020  -0.00000
1283  O 7   g 6      0.00000  -0.00033   0.00064   0.00000
1284  O 7   g 7     -0.00000   0.00008   0.00022  -0.00000
1285  O 7   g 8     -0.00000  -0.00082   0.00062   0.00000
1286  O 7   g 9      0.00000   0.00003  -0.00017  -0.00000
1287  O 7   h 1     -0.00000   0.00007  -0.00004  -0.00000
1288  O 7   h 2     -0.00000  -0.00020   0.00010   0.00000
1289  O 7   h 3     -0.00000   0.00021  -0.00006   0.00000
1290  O 7   h 4     -0.00000   0.00005  -0.00008   0.00000
1291  O 7   h 5     -0.00000   0.00028  -0.00015   0.00000
1292  O 7   h 6      0.00000  -0.00007   0.00014   0.00000
1293  O 7   h 7     -0.00000   0.00001   0.00010   0.00000
1294  O 7   h 8     -0.00000   0.00025   0.00015  -0.00000
1295  O 7   h 9     -0.00000   0.00003  -0.00006  -0.00000
1296  O 7   h10     -0.00000   0.00011   0.00009  -0.00000
1297  O 7   h11      0.00000  -0.00018   0.00000   0.00000
1298  H 13  s        0.00000   0.00611  -0.00503   0.00000
1299  H 13  s        0.00000   0.00353  -0.01786   0.00000
1300  H 13  s       -0.00000   0.16156   0.01156  -0.00000
1301  H 13  s       -0.00000  -0.00039   0.41244  -0.00000
1302  H 13  s        0.00000   1.05781  -0.49922   0.00000
1303  H 13  px       0.00000   0.00070  -0.00061   0.00000
1304  H 13  py      -0.00000   0.00236  -0.00116   0.00000
1305  H 13  pz       0.00000  -0.00091   0.00090  -0.00000
1306  H 13  px      -0.00000   0.00050   0.00252   0.00000
1307  H 13  py      -0.00000  -0.00343   0.00295   0.00000
1308  H 13  pz       0.00000  -0.00148  -0.00255  -0.00000
1309  H 13  px       0.00000   0.00004  -0.02101   0.00000
1310  H 13  py       0.00000   0.02003  -0.03541   0.00000
1311  H 13  pz      -0.00000   0.01540   0.03357  -0.00000
1312  H 13  px       0.00000   0.03214  -0.06815   0.00000
1313  H 13  py       0.00000  -0.00114  -0.09075   0.00000
1314  H 13  pz      -0.00000  -0.01870   0.10393  -0.00000
1315  H 13  d 1      0.00000  -0.00025  -0.00019  -0.00000
1316  H 13  d 2      0.00000   0.00063   0.00011  -0.00000
1317  H 13  d 3     -0.00000  -0.00031  -0.00017   0.00000
1318  H 13  d 4      0.00000   0.00077  -0.00000  -0.00000
1319  H 13  d 5     -0.00000  -0.00020  -0.00010  -0.00000
1320  H 13  d 1     -0.00000   0.00126   0.00111   0.00000
1321  H 13  d 2      0.00000  -0.00440  -0.00227   0.00000
1322  H 13  d 3      0.00000   0.00265   0.00098  -0.00000
1323  H 13  d 4      0.00000  -0.00413  -0.00043   0.00000
1324  H 13  d 5      0.00000   0.00098  -0.00051   0.00000
1325  H 13  d 1      0.00000  -0.01030   0.01285  -0.00000
1326  H 13  d 2      0.00000   0.00379  -0.02257  -0.00000
1327  H 13  d 3     -0.00000   0.00894   0.00401  -0.00000
1328  H 13  d 4      0.00000   0.00792  -0.01683   0.00000
1329  H 13  d 5      0.00000   0.00494  -0.00596  -0.00000
1330  H 13  f 1      0.00000  -0.00005   0.00009  -0.00000
1331  H 13  f 2     -0.00000   0.00034   0.00004   0.00000
1332  H 13  f 3      0.00000  -0.00033  -0.00003   0.00000
1333  H 13  f 4      0.00000  -0.00012  -0.00003   0.00000
1334  H 13  f 5      0.00000  -0.00015   0.00017   0.00000
1335  H 13  f 6      0.00000  -0.00013  -0.00007   0.00000
1336  H 13  f 7      0.00000   0.00025  -0.00001   0.00000
1337  H 13  f 1     -0.00000  -0.00072  -0.00047   0.00000
1338  H 13  f 2      0.00000  -0.00085   0.00296   0.00000
1339  H 13  f 3     -0.00000  -0.00176  -0.00244  -0.00000
1340  H 13  f 4     -0.00000   0.00131  -0.00126   0.00000
1341  H 13  f 5     -0.00000  -0.00052  -0.00212  -0.00000
1342  H 13  f 6     -0.00000   0.00029  -0.00158  -0.00000
1343  H 13  f 7     -0.00000  -0.00177   0.00149   0.00000
1344  H 13  g 1     -0.00000   0.00002  -0.00001   0.00000
1345  H 13  g 2     -0.00000  -0.00003  -0.00001  -0.00000
1346  H 13  g 3      0.00000   0.00006   0.00022  -0.00000
1347  H 13  g 4     -0.00000  -0.00017  -0.00001   0.00000
1348  H 13  g 5     -0.00000  -0.00005  -0.00017  -0.00000
1349  H 13  g 6     -0.00000  -0.00008  -0.00001  -0.00000
1350  H 13  g 7      0.00000  -0.00013  -0.00013   0.00000
1351  H 13  g 8     -0.00000  -0.00001   0.00021   0.00000
1352  H 13  g 9      0.00000  -0.00009  -0.00003  -0.00000
1353  H 14  s        0.00000   0.00141  -0.00337  -0.00000
1354  H 14  s       -0.00000   0.01568  -0.01121   0.00000
1355  H 14  s       -0.00000  -0.07141   0.00712  -0.00000
1356  H 14  s        0.00000  -0.10122   0.38883  -0.00000
1357  H 14  s       -0.00000  -0.29929  -0.33381  -0.00000
1358  H 14  px      -0.00000  -0.00002  -0.00030  -0.00000
1359  H 14  py      -0.00000   0.00001  -0.00004  -0.00000
1360  H 14  pz      -0.00000  -0.00093  -0.00137  -0.00000
1361  H 14  px       0.00000  -0.00145   0.00123  -0.00000
1362  H 14  py       0.00000  -0.00060   0.00023   0.00000
1363  H 14  pz       0.00000   0.00149   0.00356  -0.00000
1364  H 14  px       0.00000   0.00220  -0.01020   0.00000
1365  H 14  py      -0.00000  -0.01727   0.01001  -0.00000
1366  H 14  pz       0.00000   0.01894  -0.04381   0.00000
1367  H 14  px       0.00000   0.01794  -0.04666   0.00000
1368  H 14  py      -0.00000  -0.02686   0.03235  -0.00000
1369  H 14  pz      -0.00000   0.08345  -0.11277   0.00000
1370  H 14  d 1      0.00000   0.00045  -0.00013  -0.00000
1371  H 14  d 2      0.00000  -0.00023   0.00020  -0.00000
1372  H 14  d 3      0.00000   0.00087  -0.00010   0.00000
1373  H 14  d 4      0.00000  -0.00025  -0.00011   0.00000
1374  H 14  d 5     -0.00000   0.00026  -0.00003  -0.00000
1375  H 14  d 1     -0.00000  -0.00078   0.00003   0.00000
1376  H 14  d 2     -0.00000   0.00449  -0.00213  -0.00000
1377  H 14  d 3     -0.00000  -0.00790   0.00222  -0.00000
1378  H 14  d 4     -0.00000   0.00113   0.00039  -0.00000
1379  H 14  d 5      0.00000  -0.00079   0.00020  -0.00000
1380  H 14  d 1      0.00000   0.01748  -0.00560  -0.00000
1381  H 14  d 2      0.00000   0.01270  -0.01079   0.00000
1382  H 14  d 3      0.00000  -0.01667   0.02397  -0.00000
1383  H 14  d 4      0.00000  -0.01123   0.01406  -0.00000
1384  H 14  d 5      0.00000  -0.00228  -0.00002  -0.00000
1385  H 14  f 1     -0.00000   0.00021   0.00004  -0.00000
1386  H 14  f 2     -0.00000   0.00004  -0.00001  -0.00000
1387  H 14  f 3     -0.00000  -0.00033   0.00010   0.00000
1388  H 14  f 4     -0.00000   0.00012  -0.00004  -0.00000
1389  H 14  f 5      0.00000   0.00003   0.00013  -0.00000
1390  H 14  f 6     -0.00000  -0.00032   0.00002  -0.00000
1391  H 14  f 7     -0.00000   0.00001  -0.00013   0.00000
1392  H 14  f 1      0.00000  -0.00180   0.00005  -0.00000
1393  H 14  f 2      0.00000  -0.00366   0.00167  -0.00000
1394  H 14  f 3     -0.00000  -0.00279   0.00267  -0.00000
1395  H 14  f 4     -0.00000   0.00642  -0.00314   0.00000
1396  H 14  f 5      0.00000   0.00212  -0.00317   0.00000
1397  H 14  f 6     -0.00000   0.00216  -0.00052   0.00000
1398  H 14  f 7      0.00000  -0.00010   0.00067   0.00000
1399  H 14  g 1     -0.00000   0.00002   0.00001   0.00000
1400  H 14  g 2     -0.00000   0.00012  -0.00005  -0.00000
1401  H 14  g 3     -0.00000   0.00032  -0.00018  -0.00000
1402  H 14  g 4      0.00000   0.00028  -0.00023  -0.00000
1403  H 14  g 5      0.00000  -0.00045   0.00016  -0.00000
1404  H 14  g 6      0.00000  -0.00025   0.00020  -0.00000
1405  H 14  g 7      0.00000  -0.00013   0.00006  -0.00000
1406  H 14  g 8      0.00000   0.00001   0.00001  -0.00000
1407  H 14  g 9     -0.00000   0.00005   0.00001  -0.00000

          Ground-State Mulliken Net Atomic Charges

     Atom                 Charge (a.u.)
  ----------------------------------------
      1 O                    -0.801054
      2 O                    -0.642786
      3 H                     0.274233
      4 H                     0.338418
      5 O                    -0.618888
      6 H                     0.316871
      7 H                     0.332150
      8 O                    -0.722036
      9 H                     0.394801
     10 H                     0.328526
     11 O                    -0.659853
     12 H                     0.327906
     13 H                     0.364125
     14 H                     0.371377
     15 H                     0.357969
     16 O                    -0.689244
     17 H                     0.349410
     18 H                     0.338734
     19 O                    -0.666975
     20 H                     0.351963
     21 H                     0.354351
  ----------------------------------------
  Sum of atomic charges =     0.000000

 -----------------------------------------------------------------
                    Cartesian Multipole Moments
 -----------------------------------------------------------------
    Charge (ESU x 10^10)
                 0.0000
    Dipole Moment (Debye)
         X      -0.1740      Y       0.6109      Z      -3.6828
       Tot       3.7372
    Quadrupole Moments (Debye-Ang)
        XX     -48.6048     XY      66.8540     YY     -69.7126
        XZ      -0.0962     YZ     -48.7173     ZZ     -47.0622
    Octopole Moments (Debye-Ang^2)
       XXX      18.6045    XXY      51.0318    XYY    -846.9422
       YYY     440.0019    XXZ     -19.0556    XYZ      11.5216
       YYZ      29.1250    XZZ       9.4298    YZZ      31.5672
       ZZZ     -19.4422
    Hexadecapole Moments (Debye-Ang^3)
      XXXX    -696.6687   XXXY    1024.2671   XXYY   -5442.0380
      XYYY   15903.0942   YYYY  -39305.3562   XXXZ     179.2861
      XXYZ    -126.9667   XYYZ    -157.0971   YYYZ   -8082.6221
      XXZZ    -216.5129   XYZZ     332.5741   YYZZ   -4769.1644
      XZZZ     108.2973   YZZZ     -75.0357   ZZZZ    -518.4431
 -----------------------------------------------------------------
 Total job time:  4859.47s(wall), 152260.14s(cpu) 
 Tue Jan 14 16:29:50 2025

        *************************************************************
        *                                                           *
        *  Thank you very much for using Q-Chem.  Have a nice day.  *
        *                                                           *
        *************************************************************


