                  Welcome to Q-Chem
     A Quantum Leap Into The Future Of Chemistry


 Q-Chem 6.2 (devel), Q-Chem, Inc., Pleasanton, CA (2024)

 E. Epifanovsky,  A. T. B. Gilbert,  Xintian Feng,  Joonho Lee,  Yuezhi Mao,  
 N. Mardirossian,  P. Pokhilko,  A. White,  M. Wormit,  M. P. Coons,  
 A. L. Dempwolff,  Zhengting Gan,  D. Hait,  P. R. Horn,  L. D. Jacobson,  
 I. Kaliman,  J. Kussmann,  A. W. Lange,  Ka Un Lao,  D. S. Levine,  Jie Liu,  
 S. C. McKenzie,  A. F. Morrison,  K. D. Nanda,  F. Plasser,  D. R. Rehn,  
 M. L. Vidal,  Zhi-Qiang You,  Ying Zhu,  Huseyin Aksu,  B. Alam,  
 B. Albrecht,  A. Aldossary,  E. Alguire,  J. H. Andersen,  
 J. E. Arias-Martinez,  V. Athavale,  D. Barton,  K. Begam,  A. Behn,  
 N. Bellonzi,  Y. A. Bernard,  E. J. Berquist,  H. Burton,  A. Carreras,  
 K. Carter-Fenk,  Mathew Chow,  Romit Chakraborty,  Chandrima Chakravarty,  
 Junhan Chen,  A. D. Chien,  K. D. Closser,  V. Cofer-Shabica,  L. Cunha,  
 S. Dasgupta,  Jia Deng,  Joseph Dickinson,  M. de Wergifosse,  
 M. Diedenhofen,  Hainam Do,  Wenjie Dou,  S. Ehlert,  Po-Tung Fang,  
 S. Fatehi,  Qingguo Feng,  Jonathan Fetherolf,  T. Friedhoff,  
 Thomas Froitzheim,  Sarai Folkestad,  B. Ganoe,  J. Gayvert,  Qinghui Ge,  
 G. Gidofalvi,  M. Gimferrer,  M. Goldey,  Montgomery Gray,  J. Gomes,  
 C. Gonzalez-Espinoza,  S. Gulania,  A. Gunina,  J. A. Gyamfi,  
 M. W. D. Hanson-Heine,  P. H. P. Harbach,  A. W. Hauser,  M. F. Herbst,  
 M. Hernandez Vera,  M. Hodecker,  Z. C. Holden,  S. Houck,  Xunkun Huang,  
 Kerwin Hui,  B. C. Huynh,  K. Ikeda,  M. Ivanov,  Nayanthara K. Jayadev,  
 Hyunjun Ji,  Zuxin Jin,  Hanjie Jiang,  Subrata Jana,  B. Kaduk,  
 S. Kaehler,  R. Kang,  K. Khistyaev,  Jaehoon Kim,  Yongbin Kim,  
 P. Klunzinger,  Z. Koczor-Benda,  Joong Hoon Koh,  D. Kosenkov,  
 Saikiran Kotaru,  L. Koulias,  T. Kowalczyk,  C. M. Krauter,  K. Kue,  
 A. Kunitsa,  T. Kus,  A. Landau,  K. V. Lawler,  D. Lefrancois,  S. Lehtola,  
 Rain Li,  Shaozhi Li,  Tao E. Li,  Yi-Pei Li,  Jiashu Liang,  M. Liebenthal,  
 Hung-Hsuan Lin,  You-Sheng Lin,  Fenglai Liu,  Kuan-Yu Liu,  Xiao Liu,  
 M. Loipersberger,  A. Luenser,  C. Malbon,  Aniket Mandal,  Manisha,  
 A. Manjanath,  P. Manohar,  E. Mansoor,  S. F. Manzer,  Shan-Ping Mao,  
 A. V. Marenich,  T. Markovich,  S. Mason,  F. Matz,  S. A. Maurer,  
 Samuel May,  Alexandra McIsaac,  P. F. McLaughlin,  M. F. S. J. Menger,  
 J.-M. Mewes,  S. A. Mewes,  P. Morgante,  Mohammad Mostafanejad,  
 Madhubani Mukherjee,  J. W. Mullinax,  Quyen Nguyen,  Avik Kumar Ojha,  
 K. J. Oosterbaan,  Eno Paenurk,  Xiaoliang Pan,  G. Paran,  V. Parravicini,  
 Alexander C. Paul,  Suranjan K. Paul,  F. Pavosevic,  Zheng Pei,  S. Prager,  
 E. I. Proynov,  E. Ramos,  B. Rana,  A. E. Rask,  A. Rettig,  R. M. Richard,  
 F. Rob,  E. Rossomme,  T. Scheele,  M. Scheurer,  M. Schneider,  
 P. E. Schneider,  Tim K. Schramm,  N. Sergueev,  S. M. Sharada,  
 Hengyuan Shen,  W. Skomorowski,  D. W. Small,  C. J. Stein,  
 Alistair J. Sterling,  Yingli Su,  Yu-Chuan Su,  E. J. Sundstrom,  
 J. Talbot,  Zhen Tao,  J. Thirman,  Hung-Yi Tsai,  T. Tsuchimochi,  
 N. M. Tubman,  C. Utku,  S. P. Veccham,  O. Vydrov,  Rahel Weiss,  
 J. Wenzel,  Jonathan Wong,  J. Witte,  H. Wu,  Yanze Wu,  A. Yamada,  
 Chou-Hsun Yang,  Kun Yao,  S. Yeganeh,  S. R. Yost,  Qi Yu,  A. Zech,  
 F. Zeller,  Chongxiao Zhao,  Igor Ying Zhang,  Xing Zhang,  Yu Zhang,  
 D. Zuev,  A. Aspuru-Guzik,  A. T. Bell,  N. A. Besley,  K. B. Bravaya,  
 B. R. Brooks,  D. Casanova,  Jeng-Da Chai,  Hsing-Ta Chen,  S. Coriani,  
 C. J. Cramer,  A. E. DePrince, III,  R. A. DiStasio Jr.,  A. Dreuw,  
 B. D. Dunietz,  T. R. Furlani,  W. A. Goddard III,  S. Grimme,  
 S. Hammes-Schiffer,  T. Head-Gordon,  W. J. Hehre,  Chao-Ping Hsu,  
 T.-C. Jagau,  Yousung Jung,  A. Klamt,  Jing Kong,  D. S. Lambrecht,  
 Xiangyuan Li,  WanZhen Liang,  N. J. Mayhall,  C. W. McCurdy,  J. B. Neaton,  
 T. Neudecker,  C. Ochsenfeld,  J. A. Parkhill,  R. Peverati,  
 V. A. Rassolov,  Haisheng Ren,  Yihan Shao,  L. V. Slipchenko,  
 R. P. Steele,  J. E. Subotnik,  A. J. W. Thom,  A. Tkatchenko,  
 D. G. Truhlar,  T. Van Voorhis,  Fan Wang,  T. A. Wesolowski,  K. B. Whaley,  
 H. L. Woodcock III,  P. M. Zimmerman,  S. Faraji,  P. M. W. Gill,  
 M. Head-Gordon,  J. M. Herbert,  A. I. Krylov

 Contributors to earlier versions of Q-Chem not listed above: 
 R. D. Adamson,  B. Austin,  R. Baer,  J. Baker,  G. J. O. Beran,  
 K. Brandhorst,  S. T. Brown,  E. F. C. Byrd,  Arup K. Chakraborty,  
 G. K. L. Chan,  Chun-Min Chang,  Yunqing Chen,  C.-L. Cheng,  
 Siu Hung Chien,  D. M. Chipman,  D. L. Crittenden,  H. Dachsel,  
 R. J. Doerksen,  A. D. Dutoi,  R. G. Edgar,  J. Fosso-Tande,  
 L. Fusti-Molnar,  D. Ghosh,  A. Ghysels,  A. Golubeva-Zadorozhnaya,  
 J. Gonthier,  M. S. Gordon,  S. R. Gwaltney,  G. Hawkins,  J. E. Herr,  
 A. Heyden,  S. Hirata,  E. G. Hohenstein,  G. Kedziora,  F. J. Keil,  
 C. Kelley,  Jihan Kim,  R. A. King,  R. Z. Khaliullin,  P. P. Korambath,  
 W. Kurlancheek,  A. Laurent,  A. M. Lee,  M. S. Lee,  S. V. Levchenko,  
 Ching Yeh Lin,  D. Liotard,  E. Livshits,  R. C. Lochan,  I. Lotan,  
 L. A. Martinez-Martinez,  P. E. Maslen,  N. Nair,  D. P. O'Neill,  
 D. Neuhauser,  E. Neuscamman,  C. M. Oana,  R. Olivares-Amaya,  R. Olson,  
 T. M. Perrine,  B. Peters,  P. A. Pieniazek,  A. Prociuk,  Y. M. Rhee,  
 J. Ritchie,  M. A. Rohrdanz,  E. Rosta,  N. J. Russ,  H. F. Schaefer III,  
 M. W. Schmidt,  N. E. Schultz,  S. Sharma,  N. Shenvi,  C. D. Sherrill,  
 A. C. Simmonett,  A. Sodt,  T. Stein,  D. Stuck,  K. S. Thanthiriwatte,  
 V. Vanovschi,  L. Vogt,  Tao Wang,  A. Warshel,  M. A. Watson,  
 C. F. Williams,  Q. Wu,  X. Xu,  Jun Yang,  W. Zhang,  Yan Zhao

   Please cite Q-Chem as follows:
  "Software for the frontiers of quantum chemistry:
   An overview of developments in the Q-Chem 5 package"
   J. Chem. Phys. 155, 084801 (2021)
   https://doi.org/10.1063/5.0055522 (open access)

 Q-Chem 6.2.2 for Intel X86 EM64T Linux

 Parts of Q-Chem use Armadillo 9.900.5 (Nocturnal Misbehaviour).
 http://arma.sourceforge.net/

 Q-Chem begins on Wed Dec 25 17:36:41 2024  

 Host: compute-0-14.local
0

     Scratch files written to /scratch/keith/A0D2_1//
 Processing $rem in /home/keith/software/qchem/qchem_622/config/preferences:
 Processing $rem in /home/keith/.qchemrc:

 Checking the input file for inconsistencies... 	...done.

--------------------------------------------------------------
User input:
--------------------------------------------------------------
$molecule
read
$end

$rem
method                    b3lyp 
basis                     cc-pv5z 
mem_total                 63000
mem_static                8000
thresh                    12
scf_convergence           8
xc_grid                   000075000302
max_scf_cycles            2000
symmetry                  false
sym_ignore                true
scf_guess                 read
mom_start                 1
cis_n_roots               200
cis_triplets              false
rpa                       false 
trnss                     true
trtype                    2
n_sol                     113
nto_pairs                 2
gui                       2
print_orbitals            true
state_analysis            true
$end

$solute 
5 1413 1414 1415 1416 1417 1418 1419 1420 1421 1422 1423 1424 1425 1426 1427 1428 1429 1430 1431 1432 1433 1434 1435 1436 1437 1438 1439 1440 1441 1442 1443 1444 1445 1446 1447 1448 1449 1450 1451 1452 1453 1454 1455 1456 1457 1458 1459 1460 1461 1462 1463 1464 1465 1466 1467 1468 1469 1470 1471 1472 1473 1474 1475 1476 1477 1478 1479 1480 1481 1482 1483 1484 1485 1486 1487 1488 1489 1490 1491 1492 1493 1494 1495 1496 1497 1498 1499 1500 1501 1502 1503 1504 1505 1506 1507 1508 1509 1510 1511 1512 1513 1514 1515 1516 1517 1518 1519 1520 1521 1522 1523 1524
$end
--------------------------------------------------------------
 ----------------------------------------------------------------
             Standard Nuclear Orientation (Angstroms)
    I     Atom           X                Y                Z
 ----------------------------------------------------------------
    1      O      -0.1870600000     0.4079100000     0.8353000000
    2      H      -0.8690600000     0.6117100000     0.2213000000
    3      H      -0.1744600000     1.1012100000     1.4823000000
    4      O       0.2809400000    -0.3987900000    -2.7917000000
    5      H       0.5444400000    -1.2950900000    -2.5627000000
    6      H      -0.5869600000    -0.3085900000    -2.4447000000
    7      O       2.3574400000    -0.8474900000    -0.5717000000
    8      H       1.5353400000    -0.5364900000    -0.9397000000
    9      H       2.9983900000    -0.5906900000    -1.2677000000
   10      O      -0.7711600000    -2.5495900000     0.4993000000
   11      H      -0.8173600000    -3.4179900000     1.0153000000
   12      H      -0.4970600000    -1.8841900000     1.1493000000
   13      O       0.8000400000     2.7072100000     2.5423000000
   14      H       0.5150400000     3.6204100000     2.3543000000
   15      H       1.2894400000     2.6250100000     3.3843000000
   16      O      -2.5073600000     1.3416100000    -1.3347000000
   17      H      -2.6361600000     2.1976100000    -0.9037000000
   18      H      -3.4237600000     0.9553100000    -1.3417000000
   19      O       3.2582000000     1.3597100000     1.5613000000
   20      H       2.3841400000     1.7191100000     1.8563000000
   21      H       3.0237900000     0.6256100000     0.9573000000
   22      O      -3.1151600000    -2.1013900000    -0.7937000000
   23      H      -2.8666600000    -2.1794900000    -1.7257000000
   24      H      -2.2588600000    -1.9609900000    -0.3837000000
 ----------------------------------------------------------------
 Nuclear Repulsion Energy =         432.61100036 hartrees
 There are       40 alpha and       40 beta electrons
 Requested basis set is cc-pV5Z
 There are 408 shells and 1608 basis functions

 Total QAlloc Memory Limit  63000 MB
 Mega-Array Size      7821 MB
 MEM_STATIC part      8000 MB

 A cutoff of  1.0D-12 yielded  46592 shell pairs
 There are    592500 function pairs (    970599 Cartesian)
 Smallest overlap matrix eigenvalue = 2.38E-05

 Scale SEOQF with 1.000000e-01/1.000000e-01/1.000000e-01

 Standard Electronic Orientation quadrupole field applied
 Nucleus-field energy     =     0.0000000065 hartrees
 Guess MOs from SCF MO coefficient file

 -----------------------------------------------------------------------
  General SCF calculation program by
  Eric Jon Sundstrom, Paul Horn, Yuezhi Mao, Dmitri Zuev, Alec White,
  David Stuck, Shaama M.S., Shane Yost, Joonho Lee, David Small,
  Daniel Levine, Susi Lehtola, Hugh Burton, Evgeny Epifanovsky,
  Bang C. Huynh
 -----------------------------------------------------------------------
 Exchange:     0.2000 Hartree-Fock + 0.0800 Slater + 0.7200 B88
 Correlation:  0.1900 VWN1RPA + 0.8100 LYP
 Using Euler-Maclaurin-Lebedev (75,302) quadrature formula
 A restricted SCF calculation will be
 performed using DIIS
 SCF converges when DIIS error is below 1.0e-08
 ---------------------------------------
  Cycle       Energy         DIIS error
 ---------------------------------------
Maximum Overlap Method Active
 MOM overlap:    40.0 / 40
    1    -611.8187333598      2.55e-10  
    2    -611.8187333598      2.76e-10  Convergence criterion met
Maximum Overlap Method Active
 MOM overlap:    40.00 / 40
 ---------------------------------------
 SCF time:   CPU 29969.30s  wall 29982.00s 
 SCF   energy =  -611.81873336
 Total energy =  -611.81873336
 MAX_CIS_SUBSPACE fits in available memory
 Direct TDDFT/TDA calculation will be performed
 Exchange:     0.2000 Hartree-Fock + 0.0800 Slater + 0.7200 B88
 Correlation:  0.1900 VWN1RPA + 0.8100 LYP
 Using Euler-Maclaurin-Lebedev (75,302) quadrature formula
 Singlet excitation energies requested
 CIS energy converged when residual is below 10e- 6
   
 ***Using a Restricted Set of Single Excitations***
   
 RCIS calculation
   
 Excitations limited to defined orbital subspace
 -------------------------------------------------------------
              Orbitals in Truncated CIS space
 -------------------------------------------------------------
     514131414141514161417141814191420142114221423142414251426
  142714281429143014311432143314341435143614371438143914401441
  144214431444144514461447144814491450145114521453145414551456
  145714581459146014611462146314641465146614671468146914701471
  147214731474147514761477147814791480148114821483148414851486
  148714881489149014911492149314941495149614971498149915001501
  150215031504150515061507150815091510151115121513151415151516
  15171518151915201521152215231524
   
    Number of Occupied Orbitals =    1  out of    40
    Number of Virtual Orbitals  =  112  out of  1568
 -------------------------------------------------------------
 Number of Roots adjusted to:         112
 ---------------------------------------------------
 Iter    Rts Conv    Rts Left    Ttl Dev     Max Dev
 ---------------------------------------------------
   1       112           0      0.008696    0.000440    Roots Converged
 ---------------------------------------------------

 ---------------------------------------------------
         TDDFT/TDA Excitation Energies              
 ---------------------------------------------------

 Excited state   1: excitation energy (eV) =    1016.7076
 Total energy for state   1:                  -574.45541740 au
    Multiplicity: Singlet
    Trans. Mom.: -0.0031 X   0.0079 Y   0.0037 Z
    Strength   :     0.0021065600
    D(    5) --> V( 1374) amplitude = -0.3400
    D(    5) --> V( 1376) amplitude = -0.3732
    D(    5) --> V( 1377) amplitude =  0.4767
    D(    5) --> V( 1380) amplitude =  0.3655
    D(    5) --> V( 1384) amplitude =  0.3211
    D(    5) --> V( 1385) amplitude = -0.3741

 Excited state   2: excitation energy (eV) =    1018.1047
 Total energy for state   2:                  -574.40407525 au
    Multiplicity: Singlet
    Trans. Mom.: -0.0012 X   0.0044 Y   0.0012 Z
    Strength   :     0.0005515123
    D(    5) --> V( 1374) amplitude = -0.3069
    D(    5) --> V( 1377) amplitude =  0.3835
    D(    5) --> V( 1379) amplitude =  0.4532
    D(    5) --> V( 1380) amplitude = -0.3623
    D(    5) --> V( 1381) amplitude = -0.2290
    D(    5) --> V( 1384) amplitude = -0.3111
    D(    5) --> V( 1385) amplitude =  0.4683

 Excited state   3: excitation energy (eV) =    1020.6586
 Total energy for state   3:                  -574.31022080 au
    Multiplicity: Singlet
    Trans. Mom.:  0.0001 X  -0.0000 Y   0.0003 Z
    Strength   :     0.0000022693
    D(    5) --> V( 1373) amplitude =  0.9808

 Excited state   4: excitation energy (eV) =    1020.8142
 Total energy for state   4:                  -574.30450331 au
    Multiplicity: Singlet
    Trans. Mom.: -0.0006 X   0.0003 Y   0.0001 Z
    Strength   :     0.0000111896
    D(    5) --> V( 1374) amplitude = -0.6588
    D(    5) --> V( 1375) amplitude =  0.6750
    D(    5) --> V( 1376) amplitude =  0.2257

 Excited state   5: excitation energy (eV) =    1020.9054
 Total energy for state   5:                  -574.30115156 au
    Multiplicity: Singlet
    Trans. Mom.:  0.0006 X   0.0008 Y   0.0009 Z
    Strength   :     0.0000442649
    D(    5) --> V( 1374) amplitude =  0.4630
    D(    5) --> V( 1375) amplitude =  0.6989
    D(    5) --> V( 1376) amplitude = -0.4472
    D(    5) --> V( 1377) amplitude =  0.3015

 Excited state   6: excitation energy (eV) =    1021.1206
 Total energy for state   6:                  -574.29324439 au
    Multiplicity: Singlet
    Trans. Mom.: -0.0016 X  -0.0001 Y  -0.0013 Z
    Strength   :     0.0001067405
    D(    5) --> V( 1374) amplitude =  0.3481
    D(    5) --> V( 1376) amplitude =  0.5546
    D(    5) --> V( 1379) amplitude =  0.6764
    D(    5) --> V( 1380) amplitude =  0.2404

 Excited state   7: excitation energy (eV) =    1021.1968
 Total energy for state   7:                  -574.29044354 au
    Multiplicity: Singlet
    Trans. Mom.:  0.0004 X  -0.0004 Y  -0.0009 Z
    Strength   :     0.0000297056
    D(    5) --> V( 1376) amplitude =  0.5172
    D(    5) --> V( 1377) amplitude =  0.6793
    D(    5) --> V( 1379) amplitude = -0.4972

 Excited state   8: excitation energy (eV) =    1021.5708
 Total energy for state   8:                  -574.27669812 au
    Multiplicity: Singlet
    Trans. Mom.: -0.0000 X   0.0000 Y   0.0003 Z
    Strength   :     0.0000024303
    D(    5) --> V( 1378) amplitude =  0.9973

 Excited state   9: excitation energy (eV) =    1022.0357
 Total energy for state   9:                  -574.25961262 au
    Multiplicity: Singlet
    Trans. Mom.:  0.0015 X  -0.0011 Y   0.0009 Z
    Strength   :     0.0001017649
    D(    5) --> V( 1380) amplitude =  0.7645
    D(    5) --> V( 1381) amplitude = -0.4415
    D(    5) --> V( 1384) amplitude = -0.3456
    D(    5) --> V( 1385) amplitude =  0.2428

 Excited state  10: excitation energy (eV) =    1022.1538
 Total energy for state  10:                  -574.25527428 au
    Multiplicity: Singlet
    Trans. Mom.: -0.0004 X  -0.0010 Y  -0.0010 Z
    Strength   :     0.0000559946
    D(    5) --> V( 1381) amplitude =  0.5227
    D(    5) --> V( 1382) amplitude =  0.8111

 Excited state  11: excitation energy (eV) =    1022.2004
 Total energy for state  11:                  -574.25356275 au
    Multiplicity: Singlet
    Trans. Mom.:  0.0007 X  -0.0006 Y   0.0002 Z
    Strength   :     0.0000222938
    D(    5) --> V( 1381) amplitude =  0.6154
    D(    5) --> V( 1382) amplitude = -0.5325
    D(    5) --> V( 1383) amplitude =  0.4696
    D(    5) --> V( 1384) amplitude = -0.2393

 Excited state  12: excitation energy (eV) =    1022.4612
 Total energy for state  12:                  -574.24397556 au
    Multiplicity: Singlet
    Trans. Mom.: -0.0000 X   0.0009 Y   0.0005 Z
    Strength   :     0.0000249001
    D(    5) --> V( 1381) amplitude = -0.2670
    D(    5) --> V( 1383) amplitude =  0.8401
    D(    5) --> V( 1384) amplitude =  0.3685

 Excited state  13: excitation energy (eV) =    1022.5448
 Total energy for state  13:                  -574.24090505 au
    Multiplicity: Singlet
    Trans. Mom.:  0.0006 X  -0.0000 Y   0.0004 Z
    Strength   :     0.0000129128
    D(    5) --> V( 1384) amplitude =  0.6714
    D(    5) --> V( 1385) amplitude =  0.7104

 Excited state  14: excitation energy (eV) =    1023.7103
 Total energy for state  14:                  -574.19807418 au
    Multiplicity: Singlet
    Trans. Mom.: -0.0000 X  -0.0000 Y  -0.0003 Z
    Strength   :     0.0000016164
    D(    5) --> V( 1386) amplitude =  0.9985

 Excited state  15: excitation energy (eV) =    1024.7653
 Total energy for state  15:                  -574.15930448 au
    Multiplicity: Singlet
    Trans. Mom.:  0.0005 X  -0.0002 Y   0.0003 Z
    Strength   :     0.0000091012
    D(    5) --> V( 1387) amplitude =  0.9986

 Excited state  16: excitation energy (eV) =    1025.6423
 Total energy for state  16:                  -574.12707247 au
    Multiplicity: Singlet
    Trans. Mom.:  0.0003 X  -0.0003 Y  -0.0001 Z
    Strength   :     0.0000043706
    D(    5) --> V( 1388) amplitude =  0.9999

 Excited state  17: excitation energy (eV) =    1027.3198
 Total energy for state  17:                  -574.06542727 au
    Multiplicity: Singlet
    Trans. Mom.: -0.0011 X  -0.0002 Y  -0.0014 Z
    Strength   :     0.0000809178
    D(    5) --> V( 1389) amplitude =  0.9997

 Excited state  18: excitation energy (eV) =    1027.7392
 Total energy for state  18:                  -574.05001573 au
    Multiplicity: Singlet
    Trans. Mom.:  0.0012 X   0.0013 Y   0.0027 Z
    Strength   :     0.0002639601
    D(    5) --> V( 1390) amplitude =  0.9969

 Excited state  19: excitation energy (eV) =    1028.2521
 Total energy for state  19:                  -574.03116589 au
    Multiplicity: Singlet
    Trans. Mom.:  0.0017 X   0.0014 Y   0.0034 Z
    Strength   :     0.0004052165
    D(    5) --> V( 1391) amplitude =  0.9919

 Excited state  20: excitation energy (eV) =    1028.9704
 Total energy for state  20:                  -574.00477011 au
    Multiplicity: Singlet
    Trans. Mom.: -0.0002 X  -0.0001 Y  -0.0003 Z
    Strength   :     0.0000030696
    D(    5) --> V( 1392) amplitude =  0.9999

 Excited state  21: excitation energy (eV) =    1029.3201
 Total energy for state  21:                  -573.99191691 au
    Multiplicity: Singlet
    Trans. Mom.:  0.0113 X   0.0105 Y   0.0220 Z
    Strength   :     0.0182238281
    D(    5) --> V( 1398) amplitude =  0.6592
    D(    5) --> V( 1399) amplitude = -0.4348
    D(    5) --> V( 1402) amplitude = -0.2400
    D(    5) --> V( 1403) amplitude =  0.4909

 Excited state  22: excitation energy (eV) =    1030.6845
 Total energy for state  22:                  -573.94177769 au
    Multiplicity: Singlet
    Trans. Mom.: -0.0001 X  -0.0000 Y  -0.0008 Z
    Strength   :     0.0000185986
    D(    5) --> V( 1393) amplitude =  0.9952

 Excited state  23: excitation energy (eV) =    1031.0178
 Total energy for state  23:                  -573.92952952 au
    Multiplicity: Singlet
    Trans. Mom.: -0.0008 X   0.0011 Y   0.0002 Z
    Strength   :     0.0000459297
    D(    5) --> V( 1394) amplitude =  0.9914

 Excited state  24: excitation energy (eV) =    1031.2154
 Total energy for state  24:                  -573.92226531 au
    Multiplicity: Singlet
    Trans. Mom.: -0.0000 X   0.0004 Y   0.0002 Z
    Strength   :     0.0000056517
    D(    5) --> V( 1395) amplitude =  0.9995

 Excited state  25: excitation energy (eV) =    1031.3819
 Total energy for state  25:                  -573.91614604 au
    Multiplicity: Singlet
    Trans. Mom.:  0.0010 X  -0.0010 Y   0.0002 Z
    Strength   :     0.0000526002
    D(    5) --> V( 1396) amplitude =  0.9918

 Excited state  26: excitation energy (eV) =    1031.9308
 Total energy for state  26:                  -573.89597709 au
    Multiplicity: Singlet
    Trans. Mom.:  0.0000 X  -0.0002 Y  -0.0004 Z
    Strength   :     0.0000050139
    D(    5) --> V( 1397) amplitude =  0.9966

 Excited state  27: excitation energy (eV) =    1033.1061
 Total energy for state  27:                  -573.85278591 au
    Multiplicity: Singlet
    Trans. Mom.: -0.0015 X  -0.0011 Y  -0.0018 Z
    Strength   :     0.0001722846
    D(    5) --> V( 1398) amplitude =  0.6419
    D(    5) --> V( 1399) amplitude =  0.7261

 Excited state  28: excitation energy (eV) =    1033.2614
 Total energy for state  28:                  -573.84707587 au
    Multiplicity: Singlet
    Trans. Mom.: -0.0015 X   0.0003 Y  -0.0018 Z
    Strength   :     0.0001391681
    D(    5) --> V( 1400) amplitude =  0.9378
    D(    5) --> V( 1401) amplitude =  0.2866

 Excited state  29: excitation energy (eV) =    1033.4687
 Total energy for state  29:                  -573.83945946 au
    Multiplicity: Singlet
    Trans. Mom.: -0.0033 X  -0.0012 Y  -0.0039 Z
    Strength   :     0.0007003810
    D(    5) --> V( 1398) amplitude =  0.2606
    D(    5) --> V( 1399) amplitude = -0.4686
    D(    5) --> V( 1400) amplitude = -0.2580
    D(    5) --> V( 1401) amplitude =  0.5619
    D(    5) --> V( 1403) amplitude = -0.5263

 Excited state  30: excitation energy (eV) =    1033.6141
 Total energy for state  30:                  -573.83411543 au
    Multiplicity: Singlet
    Trans. Mom.:  0.0021 X   0.0003 Y   0.0030 Z
    Strength   :     0.0003495771
    D(    5) --> V( 1401) amplitude =  0.7476
    D(    5) --> V( 1402) amplitude = -0.3147
    D(    5) --> V( 1403) amplitude =  0.4762

 Excited state  31: excitation energy (eV) =    1033.8924
 Total energy for state  31:                  -573.82388876 au
    Multiplicity: Singlet
    Trans. Mom.:  0.0024 X   0.0000 Y   0.0016 Z
    Strength   :     0.0002098673
    D(    5) --> V( 1402) amplitude =  0.8924
    D(    5) --> V( 1403) amplitude =  0.3255

 Excited state  32: excitation energy (eV) =    1034.8514
 Total energy for state  32:                  -573.78864603 au
    Multiplicity: Singlet
    Trans. Mom.:  0.0055 X  -0.0048 Y   0.0029 Z
    Strength   :     0.0015434973
    D(    5) --> V( 1403) amplitude = -0.2625
    D(    5) --> V( 1404) amplitude =  0.3733
    D(    5) --> V( 1406) amplitude =  0.5521
    D(    5) --> V( 1409) amplitude =  0.5877
    D(    5) --> V( 1410) amplitude = -0.2130

 Excited state  33: excitation energy (eV) =    1035.0944
 Total energy for state  33:                  -573.77971722 au
    Multiplicity: Singlet
    Trans. Mom.: -0.0023 X   0.0015 Y  -0.0015 Z
    Strength   :     0.0002447343
    D(    5) --> V( 1404) amplitude =  0.9260
    D(    5) --> V( 1406) amplitude = -0.2354
    D(    5) --> V( 1409) amplitude = -0.2311

 Excited state  34: excitation energy (eV) =    1035.5396
 Total energy for state  34:                  -573.76335492 au
    Multiplicity: Singlet
    Trans. Mom.: -0.0009 X   0.0010 Y   0.0002 Z
    Strength   :     0.0000455258
    D(    5) --> V( 1405) amplitude =  0.9557

 Excited state  35: excitation energy (eV) =    1036.9520
 Total energy for state  35:                  -573.71145153 au
    Multiplicity: Singlet
    Trans. Mom.: -0.0001 X   0.0008 Y  -0.0003 Z
    Strength   :     0.0000177893
    D(    5) --> V( 1406) amplitude = -0.2790
    D(    5) --> V( 1413) amplitude =  0.9284

 Excited state  36: excitation energy (eV) =    1037.4576
 Total energy for state  36:                  -573.69286935 au
    Multiplicity: Singlet
    Trans. Mom.: -0.0000 X   0.0006 Y   0.0003 Z
    Strength   :     0.0000121158
    D(    5) --> V( 1406) amplitude =  0.7030
    D(    5) --> V( 1409) amplitude = -0.5782
    D(    5) --> V( 1413) amplitude =  0.3267

 Excited state  37: excitation energy (eV) =    1038.0236
 Total energy for state  37:                  -573.67206877 au
    Multiplicity: Singlet
    Trans. Mom.: -0.0001 X  -0.0005 Y   0.0002 Z
    Strength   :     0.0000084969
    D(    5) --> V( 1407) amplitude =  0.9946

 Excited state  38: excitation energy (eV) =    1038.3038
 Total energy for state  38:                  -573.66177238 au
    Multiplicity: Singlet
    Trans. Mom.:  0.0001 X  -0.0001 Y  -0.0001 Z
    Strength   :     0.0000002538
    D(    5) --> V( 1408) amplitude =  0.9923

 Excited state  39: excitation energy (eV) =    1040.0334
 Total energy for state  39:                  -573.59821104 au
    Multiplicity: Singlet
    Trans. Mom.: -0.0001 X   0.0004 Y   0.0003 Z
    Strength   :     0.0000072360
    D(    5) --> V( 1409) amplitude =  0.3273
    D(    5) --> V( 1410) amplitude =  0.9431

 Excited state  40: excitation energy (eV) =    1040.7210
 Total energy for state  40:                  -573.57294306 au
    Multiplicity: Singlet
    Trans. Mom.:  0.0001 X  -0.0006 Y  -0.0004 Z
    Strength   :     0.0000153828
    D(    5) --> V( 1411) amplitude =  0.9903

 Excited state  41: excitation energy (eV) =    1041.4798
 Total energy for state  41:                  -573.54505821 au
    Multiplicity: Singlet
    Trans. Mom.: -0.0000 X  -0.0001 Y  -0.0004 Z
    Strength   :     0.0000052119
    D(    5) --> V( 1412) amplitude =  0.9966

 Excited state  42: excitation energy (eV) =    1043.2909
 Total energy for state  42:                  -573.47850091 au
    Multiplicity: Singlet
    Trans. Mom.:  0.0009 X  -0.0008 Y   0.0003 Z
    Strength   :     0.0000424593
    D(    5) --> V( 1414) amplitude =  0.9741
    D(    5) --> V( 1415) amplitude =  0.2149

 Excited state  43: excitation energy (eV) =    1043.3642
 Total energy for state  43:                  -573.47580548 au
    Multiplicity: Singlet
    Trans. Mom.:  0.0001 X  -0.0004 Y  -0.0003 Z
    Strength   :     0.0000067822
    D(    5) --> V( 1414) amplitude = -0.2186
    D(    5) --> V( 1415) amplitude =  0.9596

 Excited state  44: excitation energy (eV) =    1043.8612
 Total energy for state  44:                  -573.45754294 au
    Multiplicity: Singlet
    Trans. Mom.:  0.0000 X  -0.0005 Y  -0.0009 Z
    Strength   :     0.0000263022
    D(    5) --> V( 1416) amplitude =  0.7266
    D(    5) --> V( 1417) amplitude = -0.6030

 Excited state  45: excitation energy (eV) =    1043.9301
 Total energy for state  45:                  -573.45501047 au
    Multiplicity: Singlet
    Trans. Mom.:  0.0002 X  -0.0001 Y   0.0004 Z
    Strength   :     0.0000053390
    D(    5) --> V( 1416) amplitude =  0.5496
    D(    5) --> V( 1417) amplitude =  0.7648
    D(    5) --> V( 1418) amplitude = -0.3328

 Excited state  46: excitation energy (eV) =    1043.9622
 Total energy for state  46:                  -573.45382941 au
    Multiplicity: Singlet
    Trans. Mom.:  0.0000 X  -0.0001 Y   0.0000 Z
    Strength   :     0.0000004621
    D(    5) --> V( 1416) amplitude =  0.3460
    D(    5) --> V( 1418) amplitude =  0.9207

 Excited state  47: excitation energy (eV) =    1044.6354
 Total energy for state  47:                  -573.42909225 au
    Multiplicity: Singlet
    Trans. Mom.: -0.0002 X  -0.0011 Y   0.0002 Z
    Strength   :     0.0000347032
    D(    5) --> V( 1419) amplitude = -0.4987
    D(    5) --> V( 1422) amplitude =  0.4542
    D(    5) --> V( 1439) amplitude =  0.5762

 Excited state  48: excitation energy (eV) =    1044.8323
 Total energy for state  48:                  -573.42185550 au
    Multiplicity: Singlet
    Trans. Mom.:  0.0004 X  -0.0012 Y  -0.0002 Z
    Strength   :     0.0000391775
    D(    5) --> V( 1419) amplitude =  0.8556
    D(    5) --> V( 1422) amplitude =  0.3395
    D(    5) --> V( 1439) amplitude =  0.2990

 Excited state  49: excitation energy (eV) =    1045.1614
 Total energy for state  49:                  -573.40976090 au
    Multiplicity: Singlet
    Trans. Mom.:  0.0010 X   0.0008 Y  -0.0004 Z
    Strength   :     0.0000486135
    D(    5) --> V( 1420) amplitude =  0.9217

 Excited state  50: excitation energy (eV) =    1045.4541
 Total energy for state  50:                  -573.39900280 au
    Multiplicity: Singlet
    Trans. Mom.:  0.0013 X   0.0012 Y  -0.0015 Z
    Strength   :     0.0001420523
    D(    5) --> V( 1420) amplitude = -0.3550
    D(    5) --> V( 1421) amplitude = -0.4801
    D(    5) --> V( 1422) amplitude =  0.5327
    D(    5) --> V( 1439) amplitude = -0.4604
    D(    5) --> V( 1443) amplitude = -0.2167

 Excited state  51: excitation energy (eV) =    1045.5499
 Total energy for state  51:                  -573.39548440 au
    Multiplicity: Singlet
    Trans. Mom.:  0.0004 X   0.0007 Y  -0.0008 Z
    Strength   :     0.0000319635
    D(    5) --> V( 1421) amplitude =  0.8476
    D(    5) --> V( 1422) amplitude =  0.3987
    D(    5) --> V( 1439) amplitude = -0.2980

 Excited state  52: excitation energy (eV) =    1046.0029
 Total energy for state  52:                  -573.37883634 au
    Multiplicity: Singlet
    Trans. Mom.:  0.0003 X   0.0006 Y  -0.0000 Z
    Strength   :     0.0000112290
    D(    5) --> V( 1423) amplitude =  0.9720

 Excited state  53: excitation energy (eV) =    1046.0661
 Total energy for state  53:                  -573.37651338 au
    Multiplicity: Singlet
    Trans. Mom.: -0.0012 X   0.0039 Y  -0.0012 Z
    Strength   :     0.0004609563
    D(    5) --> V( 1422) amplitude = -0.3183
    D(    5) --> V( 1425) amplitude = -0.3242
    D(    5) --> V( 1429) amplitude =  0.2948
    D(    5) --> V( 1435) amplitude = -0.3483
    D(    5) --> V( 1442) amplitude =  0.4730
    D(    5) --> V( 1443) amplitude = -0.4315

 Excited state  54: excitation energy (eV) =    1046.4199
 Total energy for state  54:                  -573.36351315 au
    Multiplicity: Singlet
    Trans. Mom.: -0.0036 X   0.0010 Y   0.0008 Z
    Strength   :     0.0003729142
    D(    5) --> V( 1422) amplitude =  0.2804
    D(    5) --> V( 1424) amplitude = -0.3989
    D(    5) --> V( 1425) amplitude =  0.2322
    D(    5) --> V( 1426) amplitude =  0.2509
    D(    5) --> V( 1431) amplitude =  0.2520
    D(    5) --> V( 1442) amplitude =  0.5224
    D(    5) --> V( 1443) amplitude =  0.3474

 Excited state  55: excitation energy (eV) =    1046.6663
 Total energy for state  55:                  -573.35445651 au
    Multiplicity: Singlet
    Trans. Mom.: -0.0019 X   0.0004 Y   0.0003 Z
    Strength   :     0.0000949255
    D(    5) --> V( 1424) amplitude =  0.8852
    D(    5) --> V( 1442) amplitude =  0.3129

 Excited state  56: excitation energy (eV) =    1047.1039
 Total energy for state  56:                  -573.33837491 au
    Multiplicity: Singlet
    Trans. Mom.:  0.0005 X  -0.0010 Y  -0.0012 Z
    Strength   :     0.0000698264
    D(    5) --> V( 1425) amplitude =  0.6940
    D(    5) --> V( 1426) amplitude = -0.6532

 Excited state  57: excitation energy (eV) =    1047.4956
 Total energy for state  57:                  -573.32398015 au
    Multiplicity: Singlet
    Trans. Mom.:  0.0015 X   0.0007 Y  -0.0008 Z
    Strength   :     0.0000848768
    D(    5) --> V( 1425) amplitude =  0.4999
    D(    5) --> V( 1426) amplitude =  0.6773
    D(    5) --> V( 1443) amplitude = -0.3455

 Excited state  58: excitation energy (eV) =    1047.8595
 Total energy for state  58:                  -573.31060570 au
    Multiplicity: Singlet
    Trans. Mom.: -0.0002 X   0.0000 Y  -0.0001 Z
    Strength   :     0.0000015311
    D(    5) --> V( 1427) amplitude =  0.9842

 Excited state  59: excitation energy (eV) =    1048.3941
 Total energy for state  59:                  -573.29096151 au
    Multiplicity: Singlet
    Trans. Mom.: -0.0006 X   0.0016 Y  -0.0001 Z
    Strength   :     0.0000707073
    D(    5) --> V( 1429) amplitude = -0.4464
    D(    5) --> V( 1443) amplitude = -0.2734
    D(    5) --> V( 1445) amplitude =  0.7330

 Excited state  60: excitation energy (eV) =    1049.0009
 Total energy for state  60:                  -573.26866054 au
    Multiplicity: Singlet
    Trans. Mom.: -0.0004 X  -0.0005 Y  -0.0001 Z
    Strength   :     0.0000125427
    D(    5) --> V( 1428) amplitude =  0.9836

 Excited state  61: excitation energy (eV) =    1049.1011
 Total energy for state  61:                  -573.26497885 au
    Multiplicity: Singlet
    Trans. Mom.: -0.0005 X  -0.0006 Y  -0.0007 Z
    Strength   :     0.0000292934
    D(    5) --> V( 1429) amplitude =  0.4249
    D(    5) --> V( 1430) amplitude =  0.8453
    D(    5) --> V( 1445) amplitude =  0.2496

 Excited state  62: excitation energy (eV) =    1049.2519
 Total energy for state  62:                  -573.25943635 au
    Multiplicity: Singlet
    Trans. Mom.: -0.0001 X   0.0002 Y   0.0002 Z
    Strength   :     0.0000024007
    D(    5) --> V( 1429) amplitude =  0.6486
    D(    5) --> V( 1430) amplitude = -0.5122
    D(    5) --> V( 1435) amplitude =  0.2874
    D(    5) --> V( 1445) amplitude =  0.3179

 Excited state  63: excitation energy (eV) =    1049.5754
 Total energy for state  63:                  -573.24754970 au
    Multiplicity: Singlet
    Trans. Mom.: -0.0003 X   0.0004 Y  -0.0003 Z
    Strength   :     0.0000088773
    D(    5) --> V( 1431) amplitude =  0.3551
    D(    5) --> V( 1432) amplitude =  0.9095

 Excited state  64: excitation energy (eV) =    1049.7734
 Total energy for state  64:                  -573.24027105 au
    Multiplicity: Singlet
    Trans. Mom.: -0.0007 X  -0.0005 Y  -0.0001 Z
    Strength   :     0.0000185666
    D(    5) --> V( 1431) amplitude = -0.4761
    D(    5) --> V( 1433) amplitude =  0.7447
    D(    5) --> V( 1435) amplitude =  0.2269
    D(    5) --> V( 1443) amplitude =  0.2554

 Excited state  65: excitation energy (eV) =    1049.8134
 Total energy for state  65:                  -573.23880385 au
    Multiplicity: Singlet
    Trans. Mom.:  0.0001 X   0.0005 Y  -0.0003 Z
    Strength   :     0.0000077396
    D(    5) --> V( 1431) amplitude =  0.6491
    D(    5) --> V( 1432) amplitude = -0.2845
    D(    5) --> V( 1433) amplitude =  0.6283
    D(    5) --> V( 1443) amplitude = -0.2387

 Excited state  66: excitation energy (eV) =    1050.0755
 Total energy for state  66:                  -573.22916960 au
    Multiplicity: Singlet
    Trans. Mom.:  0.0002 X  -0.0001 Y   0.0004 Z
    Strength   :     0.0000045217
    D(    5) --> V( 1434) amplitude =  0.9820

 Excited state  67: excitation energy (eV) =    1050.8577
 Total energy for state  67:                  -573.20042532 au
    Multiplicity: Singlet
    Trans. Mom.:  0.0004 X   0.0023 Y   0.0008 Z
    Strength   :     0.0001575047
    D(    5) --> V( 1435) amplitude =  0.7856
    D(    5) --> V( 1442) amplitude =  0.3218
    D(    5) --> V( 1443) amplitude = -0.3015

 Excited state  68: excitation energy (eV) =    1050.9654
 Total energy for state  68:                  -573.19646731 au
    Multiplicity: Singlet
    Trans. Mom.: -0.0003 X  -0.0002 Y  -0.0001 Z
    Strength   :     0.0000043894
    D(    5) --> V( 1436) amplitude =  0.9157
    D(    5) --> V( 1437) amplitude = -0.3315

 Excited state  69: excitation energy (eV) =    1051.0746
 Total energy for state  69:                  -573.19245421 au
    Multiplicity: Singlet
    Trans. Mom.: -0.0001 X  -0.0005 Y  -0.0001 Z
    Strength   :     0.0000082509
    D(    5) --> V( 1436) amplitude =  0.3374
    D(    5) --> V( 1437) amplitude =  0.8645

 Excited state  70: excitation energy (eV) =    1051.3282
 Total energy for state  70:                  -573.18313531 au
    Multiplicity: Singlet
    Trans. Mom.:  0.0007 X   0.0000 Y   0.0002 Z
    Strength   :     0.0000133633
    D(    5) --> V( 1438) amplitude =  0.9515

 Excited state  71: excitation energy (eV) =    1052.3978
 Total energy for state  71:                  -573.14382707 au
    Multiplicity: Singlet
    Trans. Mom.: -0.0002 X   0.0002 Y  -0.0005 Z
    Strength   :     0.0000080827
    D(    5) --> V( 1440) amplitude =  0.8031
    D(    5) --> V( 1441) amplitude =  0.5200
    D(    5) --> V( 1442) amplitude = -0.2615

 Excited state  72: excitation energy (eV) =    1052.5041
 Total energy for state  72:                  -573.13992227 au
    Multiplicity: Singlet
    Trans. Mom.:  0.0004 X  -0.0000 Y   0.0002 Z
    Strength   :     0.0000041285
    D(    5) --> V( 1440) amplitude = -0.4452
    D(    5) --> V( 1441) amplitude =  0.8222
    D(    5) --> V( 1442) amplitude =  0.3125

 Excited state  73: excitation energy (eV) =    1053.5948
 Total energy for state  73:                  -573.09983884 au
    Multiplicity: Singlet
    Trans. Mom.:  0.0004 X   0.0003 Y  -0.0004 Z
    Strength   :     0.0000113868
    D(    5) --> V( 1443) amplitude = -0.2552
    D(    5) --> V( 1444) amplitude =  0.9600

 Excited state  74: excitation energy (eV) =    1055.1341
 Total energy for state  74:                  -573.04327151 au
    Multiplicity: Singlet
    Trans. Mom.: -0.0070 X  -0.0059 Y   0.0060 Z
    Strength   :     0.0030739176
    D(    5) --> V( 1446) amplitude = -0.6099
    D(    5) --> V( 1447) amplitude =  0.2869
    D(    5) --> V( 1454) amplitude =  0.6528
    D(    5) --> V( 1455) amplitude = -0.3243

 Excited state  75: excitation energy (eV) =    1055.2923
 Total energy for state  75:                  -573.03745686 au
    Multiplicity: Singlet
    Trans. Mom.: -0.0052 X  -0.0032 Y   0.0054 Z
    Strength   :     0.0017271683
    D(    5) --> V( 1446) amplitude =  0.7856
    D(    5) --> V( 1447) amplitude =  0.2267
    D(    5) --> V( 1454) amplitude =  0.5010
    D(    5) --> V( 1455) amplitude = -0.2546

 Excited state  76: excitation energy (eV) =    1055.7286
 Total energy for state  76:                  -573.02142388 au
    Multiplicity: Singlet
    Trans. Mom.:  0.0030 X   0.0023 Y  -0.0026 Z
    Strength   :     0.0005374273
    D(    5) --> V( 1447) amplitude =  0.9279
    D(    5) --> V( 1454) amplitude = -0.3221

 Excited state  77: excitation energy (eV) =    1056.0228
 Total energy for state  77:                  -573.01061009 au
    Multiplicity: Singlet
    Trans. Mom.:  0.0006 X   0.0003 Y  -0.0001 Z
    Strength   :     0.0000119854
    D(    5) --> V( 1448) amplitude =  0.9982

 Excited state  78: excitation energy (eV) =    1056.6716
 Total energy for state  78:                  -572.98676787 au
    Multiplicity: Singlet
    Trans. Mom.:  0.0008 X   0.0002 Y  -0.0006 Z
    Strength   :     0.0000283519
    D(    5) --> V( 1449) amplitude =  0.9961

 Excited state  79: excitation energy (eV) =    1057.9385
 Total energy for state  79:                  -572.94021092 au
    Multiplicity: Singlet
    Trans. Mom.: -0.0003 X  -0.0002 Y   0.0000 Z
    Strength   :     0.0000037258
    D(    5) --> V( 1450) amplitude =  0.9990

 Excited state  80: excitation energy (eV) =    1058.5726
 Total energy for state  80:                  -572.91690608 au
    Multiplicity: Singlet
    Trans. Mom.:  0.0013 X   0.0013 Y   0.0019 Z
    Strength   :     0.0001823194
    D(    5) --> V( 1451) amplitude =  0.8521
    D(    5) --> V( 1456) amplitude = -0.5035

 Excited state  81: excitation energy (eV) =    1058.8061
 Total energy for state  81:                  -572.90832662 au
    Multiplicity: Singlet
    Trans. Mom.: -0.0026 X  -0.0021 Y  -0.0026 Z
    Strength   :     0.0004646337
    D(    5) --> V( 1451) amplitude =  0.5187
    D(    5) --> V( 1456) amplitude =  0.8253

 Excited state  82: excitation energy (eV) =    1059.6602
 Total energy for state  82:                  -572.87694099 au
    Multiplicity: Singlet
    Trans. Mom.: -0.0000 X  -0.0005 Y  -0.0006 Z
    Strength   :     0.0000143393
    D(    5) --> V( 1452) amplitude =  0.9802

 Excited state  83: excitation energy (eV) =    1061.3413
 Total energy for state  83:                  -572.81516143 au
    Multiplicity: Singlet
    Trans. Mom.: -0.0003 X   0.0001 Y  -0.0001 Z
    Strength   :     0.0000034092
    D(    5) --> V( 1453) amplitude =  0.9967

 Excited state  84: excitation energy (eV) =    1061.9935
 Total energy for state  84:                  -572.79119218 au
    Multiplicity: Singlet
    Trans. Mom.:  0.0004 X   0.0001 Y   0.0002 Z
    Strength   :     0.0000054428
    D(    5) --> V( 1454) amplitude =  0.4496
    D(    5) --> V( 1455) amplitude =  0.8874

 Excited state  85: excitation energy (eV) =    1077.9285
 Total energy for state  85:                  -572.20559205 au
    Multiplicity: Singlet
    Trans. Mom.: -0.0006 X   0.0008 Y  -0.0003 Z
    Strength   :     0.0000292628
    D(    5) --> V( 1457) amplitude =  0.9987

 Excited state  86: excitation energy (eV) =    1078.9293
 Total energy for state  86:                  -572.16881197 au
    Multiplicity: Singlet
    Trans. Mom.: -0.0008 X   0.0010 Y  -0.0000 Z
    Strength   :     0.0000433012
    D(    5) --> V( 1458) amplitude =  0.9953

 Excited state  87: excitation energy (eV) =    1079.6205
 Total energy for state  87:                  -572.14341062 au
    Multiplicity: Singlet
    Trans. Mom.: -0.0007 X   0.0017 Y   0.0005 Z
    Strength   :     0.0000989214
    D(    5) --> V( 1459) amplitude =  0.9919

 Excited state  88: excitation energy (eV) =    1080.7208
 Total energy for state  88:                  -572.10297792 au
    Multiplicity: Singlet
    Trans. Mom.:  0.0069 X  -0.0101 Y  -0.0010 Z
    Strength   :     0.0039828408
    D(    5) --> V( 1468) amplitude = -0.4940
    D(    5) --> V( 1470) amplitude =  0.7801

 Excited state  89: excitation energy (eV) =    1082.0825
 Total energy for state  89:                  -572.05293378 au
    Multiplicity: Singlet
    Trans. Mom.:  0.0010 X  -0.0012 Y   0.0002 Z
    Strength   :     0.0000626061
    D(    5) --> V( 1460) amplitude =  0.9828

 Excited state  90: excitation energy (eV) =    1082.4235
 Total energy for state  90:                  -572.04040333 au
    Multiplicity: Singlet
    Trans. Mom.: -0.0002 X   0.0006 Y   0.0005 Z
    Strength   :     0.0000155952
    D(    5) --> V( 1461) amplitude =  0.9415
    D(    5) --> V( 1462) amplitude = -0.3276

 Excited state  91: excitation energy (eV) =    1082.5924
 Total energy for state  91:                  -572.03419723 au
    Multiplicity: Singlet
    Trans. Mom.:  0.0002 X  -0.0004 Y  -0.0004 Z
    Strength   :     0.0000093369
    D(    5) --> V( 1461) amplitude =  0.3308
    D(    5) --> V( 1462) amplitude =  0.9426

 Excited state  92: excitation energy (eV) =    1083.7192
 Total energy for state  92:                  -571.99278765 au
    Multiplicity: Singlet
    Trans. Mom.: -0.0005 X  -0.0001 Y  -0.0009 Z
    Strength   :     0.0000288226
    D(    5) --> V( 1463) amplitude =  0.9982

 Excited state  93: excitation energy (eV) =    1084.4422
 Total energy for state  93:                  -571.96621842 au
    Multiplicity: Singlet
    Trans. Mom.:  0.0010 X  -0.0005 Y   0.0006 Z
    Strength   :     0.0000440334
    D(    5) --> V( 1464) amplitude =  0.9910

 Excited state  94: excitation energy (eV) =    1085.0602
 Total energy for state  94:                  -571.94350597 au
    Multiplicity: Singlet
    Trans. Mom.: -0.0010 X   0.0009 Y   0.0003 Z
    Strength   :     0.0000497784
    D(    5) --> V( 1465) amplitude =  0.9735

 Excited state  95: excitation energy (eV) =    1085.3588
 Total energy for state  95:                  -571.93253344 au
    Multiplicity: Singlet
    Trans. Mom.: -0.0000 X  -0.0004 Y  -0.0003 Z
    Strength   :     0.0000064920
    D(    5) --> V( 1466) amplitude =  0.9957

 Excited state  96: excitation energy (eV) =    1086.0891
 Total energy for state  96:                  -571.90569339 au
    Multiplicity: Singlet
    Trans. Mom.: -0.0006 X   0.0001 Y  -0.0005 Z
    Strength   :     0.0000179961
    D(    5) --> V( 1467) amplitude =  0.9875

 Excited state  97: excitation energy (eV) =    1088.4916
 Total energy for state  97:                  -571.81740552 au
    Multiplicity: Singlet
    Trans. Mom.: -0.0012 X  -0.0006 Y  -0.0008 Z
    Strength   :     0.0000623851
    D(    5) --> V( 1468) amplitude =  0.3895
    D(    5) --> V( 1469) amplitude =  0.8444
    D(    5) --> V( 1470) amplitude =  0.3629

 Excited state  98: excitation energy (eV) =    1088.6024
 Total energy for state  98:                  -571.81333194 au
    Multiplicity: Singlet
    Trans. Mom.: -0.0008 X  -0.0009 Y  -0.0018 Z
    Strength   :     0.0001260851
    D(    5) --> V( 1468) amplitude =  0.7457
    D(    5) --> V( 1469) amplitude = -0.5234
    D(    5) --> V( 1470) amplitude =  0.4055

 Excited state  99: excitation energy (eV) =    1089.5031
 Total energy for state  99:                  -571.78023160 au
    Multiplicity: Singlet
    Trans. Mom.:  0.0107 X   0.0079 Y   0.0191 Z
    Strength   :     0.0144588108
    D(    5) --> V( 1472) amplitude =  0.9943

 Excited state 100: excitation energy (eV) =    1092.4498
 Total energy for state 100:                  -571.67194382 au
    Multiplicity: Singlet
    Trans. Mom.:  0.0002 X  -0.0000 Y   0.0001 Z
    Strength   :     0.0000010530
    D(    5) --> V( 1471) amplitude =  0.9998

 Excited state 101: excitation energy (eV) =    1109.5550
 Total energy for state 101:                  -571.04334089 au
    Multiplicity: Singlet
    Trans. Mom.:  0.0018 X   0.0138 Y  -0.0072 Z
    Strength   :     0.0066672939
    D(    5) --> V( 1474) amplitude =  0.2578
    D(    5) --> V( 1478) amplitude =  0.2186
    D(    5) --> V( 1479) amplitude = -0.4179
    D(    5) --> V( 1480) amplitude = -0.2793
    D(    5) --> V( 1482) amplitude =  0.5108
    D(    5) --> V( 1483) amplitude = -0.3106
    D(    5) --> V( 1484) amplitude = -0.4545

 Excited state 102: excitation energy (eV) =    1109.9277
 Total energy for state 102:                  -571.02964161 au
    Multiplicity: Singlet
    Trans. Mom.:  0.0145 X  -0.0098 Y  -0.0039 Z
    Strength   :     0.0087554879
    D(    5) --> V( 1473) amplitude =  0.4347
    D(    5) --> V( 1475) amplitude = -0.2706
    D(    5) --> V( 1478) amplitude = -0.3209
    D(    5) --> V( 1479) amplitude =  0.4796
    D(    5) --> V( 1480) amplitude = -0.4202
    D(    5) --> V( 1484) amplitude = -0.4136

 Excited state 103: excitation energy (eV) =    1115.4072
 Total energy for state 103:                  -570.82827489 au
    Multiplicity: Singlet
    Trans. Mom.: -0.0009 X   0.0008 Y   0.0003 Z
    Strength   :     0.0000427161
    D(    5) --> V( 1473) amplitude =  0.8326
    D(    5) --> V( 1475) amplitude =  0.4688

 Excited state 104: excitation energy (eV) =    1115.6520
 Total energy for state 104:                  -570.81927691 au
    Multiplicity: Singlet
    Trans. Mom.: -0.0003 X  -0.0006 Y  -0.0001 Z
    Strength   :     0.0000118079
    D(    5) --> V( 1474) amplitude =  0.9527

 Excited state 105: excitation energy (eV) =    1115.8334
 Total energy for state 105:                  -570.81261243 au
    Multiplicity: Singlet
    Trans. Mom.:  0.0008 X  -0.0006 Y  -0.0005 Z
    Strength   :     0.0000341406
    D(    5) --> V( 1473) amplitude = -0.3051
    D(    5) --> V( 1475) amplitude =  0.8266
    D(    5) --> V( 1478) amplitude = -0.2465
    D(    5) --> V( 1479) amplitude =  0.3099

 Excited state 106: excitation energy (eV) =    1115.9806
 Total energy for state 106:                  -570.80720407 au
    Multiplicity: Singlet
    Trans. Mom.:  0.0000 X  -0.0002 Y   0.0004 Z
    Strength   :     0.0000052253
    D(    5) --> V( 1476) amplitude =  0.9674

 Excited state 107: excitation energy (eV) =    1116.3921
 Total energy for state 107:                  -570.79207988 au
    Multiplicity: Singlet
    Trans. Mom.: -0.0002 X   0.0002 Y   0.0004 Z
    Strength   :     0.0000073508
    D(    5) --> V( 1477) amplitude =  0.9650

 Excited state 108: excitation energy (eV) =    1116.5398
 Total energy for state 108:                  -570.78665178 au
    Multiplicity: Singlet
    Trans. Mom.: -0.0000 X  -0.0002 Y  -0.0003 Z
    Strength   :     0.0000032532
    D(    5) --> V( 1478) amplitude =  0.8490
    D(    5) --> V( 1479) amplitude =  0.4741

 Excited state 109: excitation energy (eV) =    1116.8349
 Total energy for state 109:                  -570.77580820 au
    Multiplicity: Singlet
    Trans. Mom.: -0.0002 X  -0.0000 Y  -0.0005 Z
    Strength   :     0.0000094243
    D(    5) --> V( 1479) amplitude =  0.2304
    D(    5) --> V( 1480) amplitude =  0.6747
    D(    5) --> V( 1481) amplitude = -0.5001
    D(    5) --> V( 1482) amplitude =  0.4521

 Excited state 110: excitation energy (eV) =    1116.9582
 Total energy for state 110:                  -570.77127595 au
    Multiplicity: Singlet
    Trans. Mom.: -0.0001 X   0.0001 Y  -0.0000 Z
    Strength   :     0.0000006867
    D(    5) --> V( 1479) amplitude =  0.3486
    D(    5) --> V( 1481) amplitude =  0.7631
    D(    5) --> V( 1482) amplitude =  0.5293

 Excited state 111: excitation energy (eV) =    1117.3367
 Total energy for state 111:                  -570.75736527 au
    Multiplicity: Singlet
    Trans. Mom.: -0.0006 X  -0.0000 Y  -0.0001 Z
    Strength   :     0.0000101012
    D(    5) --> V( 1480) amplitude = -0.4233
    D(    5) --> V( 1481) amplitude = -0.2752
    D(    5) --> V( 1482) amplitude =  0.4484
    D(    5) --> V( 1483) amplitude =  0.4972
    D(    5) --> V( 1484) amplitude =  0.5372

 Excited state 112: excitation energy (eV) =    1117.6307
 Total energy for state 112:                  -570.74656152 au
    Multiplicity: Singlet
    Trans. Mom.:  0.0007 X  -0.0004 Y  -0.0002 Z
    Strength   :     0.0000189604
    D(    5) --> V( 1483) amplitude =  0.8008
    D(    5) --> V( 1484) amplitude = -0.5440

 ---------------------------------------------------
  SETman timing summary (seconds)
  CPU time            323161.27s
  System time              0.01s
  Wall time           323274.14s
================================================================================
                             Excited State Analysis
================================================================================

  Ground State (Reference) :
  -------------------------
    NOs
      Occupation of frontier NOs:
         0.0000   0.0000   2.0000   2.0000
      Number of electrons: 80.000000
      Number of unpaired electrons: n_u =  0.00000, n_u,nl =  0.00000
    
    Mulliken Population Analysis (State DM)
    Atom      Charge (e)
    --------------------
     1 O       -0.667451
     2 H        0.340149
     3 H        0.313664
     4 O       -0.664234
     5 H        0.321250
     6 H        0.353033
     7 O       -0.724165
     8 H        0.380488
     9 H        0.334662
    10 O       -0.654649
    11 H        0.307974
    12 H        0.360493
    13 O       -0.630947
    14 H        0.316399
    15 H        0.345674
    16 O       -0.608433
    17 H        0.300688
    18 H        0.319959
    19 O       -0.755307
    20 H        0.347328
    21 H        0.380988
    22 O       -0.672915
    23 H        0.276443
    24 H        0.378909
    --------------------
    Sum:        0.000000
    
    Multipole moment analysis of the density matrix
      Molecular charge:                      0.000000
      Number of electrons:                   80.000000
        Center of electronic charge [Ang]: [ -0.002005,   0.000467,   0.000473]
      Total nuclear charge:                  80.000000
        Center of nuclear charge [Ang]:    [ -0.011409,   0.007949,   0.005275]
      Dipole moment [D]:                     4.972660
        Cartesian components [D]:          [ -3.613628,   2.874732,   1.845252]
      RMS size of the density [Ang]:         3.185853
        Cartesian components [Ang]:        [  2.075680,   1.760447,   1.655911]
    

  ----------------------------------------------------------------------------
                  Analysis of Unrelaxed Density Matrices
  ----------------------------------------------------------------------------

  Singlet 1 :
  -------------------------
    NOs
      Occupation of frontier NOs:
         0.0000   1.0000   1.0000   2.0000
      Number of electrons: 80.000000
      Number of unpaired electrons: n_u =  2.00000, n_u,nl =  2.00000
      NO participation ratio (PR_NO):  2.000000
    
    NDOs
      Leading detachment eigenvalues:
        -1.0000  -0.0000
      Leading attachment eigenvalues:
         1.0000   0.0000
      Number of detached / attached electrons: p_D =  1.0000, p_A =  1.0000
      Number of involved orbitals: PR_D =  1.000000, PR_A =  1.000000
    
    Mulliken Population Analysis (State/Difference DM)
    Atom      Charge (e)              h+              e-           Del q
    --------------------------------------------------------------------
     1 O       -0.466198        0.991273       -0.790020        0.201253
     2 H        0.309024        0.004179       -0.035305       -0.031126
     3 H        0.278452        0.004546       -0.039758       -0.035212
     4 O       -0.664384       -0.000000       -0.000150       -0.000150
     5 H        0.321219       -0.000000       -0.000031       -0.000031
     6 H        0.352991        0.000000       -0.000043       -0.000042
     7 O       -0.725310       -0.000000       -0.001145       -0.001145
     8 H        0.380053        0.000000       -0.000435       -0.000435
     9 H        0.334470        0.000000       -0.000192       -0.000192
    10 O       -0.656924       -0.000003       -0.002272       -0.002275
    11 H        0.307657       -0.000000       -0.000317       -0.000317
    12 H        0.358832        0.000001       -0.001662       -0.001661
    13 O       -0.731123        0.000002       -0.100178       -0.100175
    14 H        0.309798        0.000000       -0.006601       -0.006601
    15 H        0.340922        0.000000       -0.004753       -0.004752
    16 O       -0.611741        0.000000       -0.003308       -0.003307
    17 H        0.300070       -0.000000       -0.000617       -0.000617
    18 H        0.319854        0.000000       -0.000105       -0.000105
    19 O       -0.765391        0.000000       -0.010084       -0.010084
    20 H        0.346358       -0.000001       -0.000970       -0.000971
    21 H        0.380145        0.000000       -0.000843       -0.000843
    22 O       -0.673615       -0.000000       -0.000700       -0.000700
    23 H        0.276126       -0.000000       -0.000317       -0.000317
    24 H        0.378716        0.000000       -0.000194       -0.000193
    --------------------------------------------------------------------
    Sum:        0.000000        1.000000       -1.000000        0.000000
    
    Multipole moment analysis of the density matrix
      Molecular charge:                      0.000000
      Number of electrons:                   80.000000
        Center of electronic charge [Ang]: [ -0.000941,   0.004586,   0.002843]
      Total nuclear charge:                  80.000000
        Center of nuclear charge [Ang]:    [ -0.011409,   0.007949,   0.005275]
      Dipole moment [D]:                     4.327049
        Cartesian components [D]:          [ -4.022441,   1.292324,   0.934463]
      RMS size of the density [Ang]:         3.190224
        Cartesian components [Ang]:        [  2.076768,   1.764257,   1.658904]
    
    Exciton analysis of the difference density matrix
      <r_h> [Ang]:                  [ -0.187160,   0.408031,   0.835305]
      <r_e> [Ang]:                  [ -0.102047,   0.737480,   1.024926]
      |<r_e - r_h>| [Ang]:            0.389534
      Hole size [Ang]:                0.122780
        Cartesian components [Ang]: [  0.070885,   0.070886,   0.070891]
      Electron size [Ang]:            1.241436
        Cartesian components [Ang]: [  0.625180,   0.838900,   0.668251]

  Singlet 2 :
  -------------------------
    NOs
      Occupation of frontier NOs:
         0.0000   1.0000   1.0000   2.0000
      Number of electrons: 80.000000
      Number of unpaired electrons: n_u =  2.00000, n_u,nl =  2.00000
      NO participation ratio (PR_NO):  2.000000
    
    NDOs
      Leading detachment eigenvalues:
        -1.0000  -0.0000
      Leading attachment eigenvalues:
         1.0000   0.0000
      Number of detached / attached electrons: p_D =  1.0000, p_A =  1.0000
      Number of involved orbitals: PR_D =  1.000000, PR_A =  1.000000
    
    Mulliken Population Analysis (State/Difference DM)
    Atom      Charge (e)              h+              e-           Del q
    --------------------------------------------------------------------
     1 O       -0.238570        0.991273       -0.562392        0.428881
     2 H        0.283199        0.004179       -0.061130       -0.056951
     3 H        0.215127        0.004546       -0.103083       -0.098537
     4 O       -0.664760       -0.000000       -0.000526       -0.000526
     5 H        0.321213       -0.000000       -0.000037       -0.000037
     6 H        0.352950        0.000000       -0.000083       -0.000083
     7 O       -0.730071       -0.000000       -0.005906       -0.005906
     8 H        0.380145        0.000000       -0.000344       -0.000344
     9 H        0.334489        0.000000       -0.000173       -0.000173
    10 O       -0.657906       -0.000003       -0.003254       -0.003257
    11 H        0.307382       -0.000000       -0.000592       -0.000592
    12 H        0.359375        0.000001       -0.001119       -0.001118
    13 O       -0.823651        0.000002       -0.192706       -0.192704
    14 H        0.308983        0.000000       -0.007416       -0.007416
    15 H        0.338264        0.000000       -0.007410       -0.007410
    16 O       -0.629276        0.000000       -0.020843       -0.020843
    17 H        0.298207       -0.000000       -0.002481       -0.002481
    18 H        0.319219        0.000000       -0.000740       -0.000740
    19 O       -0.779147        0.000000       -0.023840       -0.023840
    20 H        0.344697       -0.000001       -0.002631       -0.002631
    21 H        0.378511        0.000000       -0.002477       -0.002477
    22 O       -0.673347       -0.000000       -0.000432       -0.000432
    23 H        0.276152       -0.000000       -0.000291       -0.000291
    24 H        0.378817        0.000000       -0.000093       -0.000092
    --------------------------------------------------------------------
    Sum:       -0.000000        1.000000       -1.000000       -0.000000
    
    Multipole moment analysis of the density matrix
      Molecular charge:                      -0.000000
      Number of electrons:                   80.000000
        Center of electronic charge [Ang]: [  0.000455,   0.007782,   0.004916]
      Total nuclear charge:                  80.000000
        Center of nuclear charge [Ang]:    [ -0.011409,   0.007949,   0.005275]
      Dipole moment [D]:                     4.561550
        Cartesian components [D]:          [ -4.559008,   0.064138,   0.138092]
      RMS size of the density [Ang]:         3.193987
        Cartesian components [Ang]:        [  2.077960,   1.767090,   1.661633]
    
    Exciton analysis of the difference density matrix
      <r_h> [Ang]:                  [ -0.187160,   0.408031,   0.835305]
      <r_e> [Ang]:                  [  0.009663,   0.993181,   1.190726]
      |<r_e - r_h>| [Ang]:            0.712365
      Hole size [Ang]:                0.122780
        Cartesian components [Ang]: [  0.070885,   0.070886,   0.070891]
      Electron size [Ang]:            1.633312
        Cartesian components [Ang]: [  0.892944,   1.031876,   0.897547]

  Singlet 3 :
  -------------------------
    NOs
      Occupation of frontier NOs:
         0.0000   1.0000   1.0000   2.0000
      Number of electrons: 80.000000
      Number of unpaired electrons: n_u =  2.00000, n_u,nl =  2.00000
      NO participation ratio (PR_NO):  2.000000
    
    NDOs
      Leading detachment eigenvalues:
        -1.0000  -0.0000
      Leading attachment eigenvalues:
         1.0000   0.0000
      Number of detached / attached electrons: p_D =  1.0000, p_A =  1.0000
      Number of involved orbitals: PR_D =  1.000000, PR_A =  1.000000
    
    Mulliken Population Analysis (State/Difference DM)
    Atom      Charge (e)              h+              e-           Del q
    --------------------------------------------------------------------
     1 O        0.322698        0.991273       -0.001125        0.990148
     2 H        0.344130        0.004179       -0.000199        0.003981
     3 H        0.318102        0.004546       -0.000108        0.004438
     4 O       -1.610976       -0.000000       -0.946742       -0.946742
     5 H        0.315834       -0.000000       -0.005416       -0.005416
     6 H        0.345389        0.000000       -0.007645       -0.007645
     7 O       -0.728318       -0.000000       -0.004152       -0.004153
     8 H        0.378668        0.000000       -0.001820       -0.001820
     9 H        0.333944        0.000000       -0.000717       -0.000717
    10 O       -0.655328       -0.000003       -0.000675       -0.000679
    11 H        0.307920       -0.000000       -0.000054       -0.000054
    12 H        0.360451        0.000001       -0.000044       -0.000042
    13 O       -0.631112        0.000002       -0.000167       -0.000165
    14 H        0.316382        0.000000       -0.000018       -0.000018
    15 H        0.345647        0.000000       -0.000027       -0.000027
    16 O       -0.614113        0.000000       -0.005680       -0.005680
    17 H        0.300607       -0.000000       -0.000080       -0.000080
    18 H        0.319856        0.000000       -0.000103       -0.000103
    19 O       -0.778432        0.000000       -0.023125       -0.023125
    20 H        0.347056       -0.000001       -0.000271       -0.000272
    21 H        0.380636        0.000000       -0.000352       -0.000352
    22 O       -0.674079       -0.000000       -0.001164       -0.001164
    23 H        0.276345       -0.000000       -0.000098       -0.000098
    24 H        0.378693        0.000000       -0.000217       -0.000216
    --------------------------------------------------------------------
    Sum:        0.000000        1.000000       -1.000000        0.000000
    
    Multipole moment analysis of the density matrix
      Molecular charge:                      0.000000
      Number of electrons:                   80.000000
        Center of electronic charge [Ang]: [  0.004257,  -0.009418,  -0.042838]
      Total nuclear charge:                  80.000000
        Center of nuclear charge [Ang]:    [ -0.011409,   0.007949,   0.005275]
      Dipole moment [D]:                     20.556306
        Cartesian components [D]:          [ -6.019900,   6.673331,  18.487541]
      RMS size of the density [Ang]:         3.200137
        Cartesian components [Ang]:        [  2.076999,   1.761045,   1.680973]
    
    Exciton analysis of the difference density matrix
      <r_h> [Ang]:                  [ -0.187160,   0.408031,   0.835305]
      <r_e> [Ang]:                  [  0.313812,  -0.382815,  -2.629526]
      |<r_e - r_h>| [Ang]:            3.589075
      Hole size [Ang]:                0.122780
        Cartesian components [Ang]: [  0.070885,   0.070886,   0.070891]
      Electron size [Ang]:            1.098652
        Cartesian components [Ang]: [  0.617215,   0.447779,   0.790933]

  Singlet 4 :
  -------------------------
    NOs
      Occupation of frontier NOs:
         0.0000   1.0000   1.0000   2.0000
      Number of electrons: 80.000000
      Number of unpaired electrons: n_u =  2.00000, n_u,nl =  2.00000
      NO participation ratio (PR_NO):  2.000000
    
    NDOs
      Leading detachment eigenvalues:
        -1.0000  -0.0000
      Leading attachment eigenvalues:
         1.0000   0.0000
      Number of detached / attached electrons: p_D =  1.0000, p_A =  1.0000
      Number of involved orbitals: PR_D =  1.000000, PR_A =  1.000000
    
    Mulliken Population Analysis (State/Difference DM)
    Atom      Charge (e)              h+              e-           Del q
    --------------------------------------------------------------------
     1 O        0.314735        0.991273       -0.009088        0.982186
     2 H        0.344056        0.004179       -0.000272        0.003907
     3 H        0.318032        0.004546       -0.000178        0.004368
     4 O       -0.668432       -0.000000       -0.004198       -0.004198
     5 H        0.321135       -0.000000       -0.000115       -0.000115
     6 H        0.352912        0.000000       -0.000122       -0.000121
     7 O       -0.725277       -0.000000       -0.001112       -0.001112
     8 H        0.380435        0.000000       -0.000054       -0.000053
     9 H        0.334547        0.000000       -0.000115       -0.000115
    10 O       -1.012223       -0.000003       -0.357570       -0.357574
    11 H        0.297679       -0.000000       -0.010295       -0.010295
    12 H        0.346612        0.000001       -0.013883       -0.013882
    13 O       -0.635911        0.000002       -0.004966       -0.004963
    14 H        0.316153        0.000000       -0.000247       -0.000247
    15 H        0.345173        0.000000       -0.000501       -0.000501
    16 O       -0.608889        0.000000       -0.000456       -0.000455
    17 H        0.300665       -0.000000       -0.000023       -0.000023
    18 H        0.319926        0.000000       -0.000032       -0.000032
    19 O       -0.961203        0.000000       -0.205896       -0.205896
    20 H        0.345622       -0.000001       -0.001705       -0.001706
    21 H        0.379070        0.000000       -0.001918       -0.001918
    22 O       -1.041543       -0.000000       -0.368628       -0.368628
    23 H        0.270148       -0.000000       -0.006294       -0.006294
    24 H        0.366576        0.000000       -0.012333       -0.012333
    --------------------------------------------------------------------
    Sum:       -0.000000        1.000000       -1.000000       -0.000000
    
    Multipole moment analysis of the density matrix
      Molecular charge:                      -0.000000
      Number of electrons:                   80.000000
        Center of electronic charge [Ang]: [ -0.009673,  -0.022949,  -0.006950]
      Total nuclear charge:                  80.000000
        Center of nuclear charge [Ang]:    [ -0.011409,   0.007949,   0.005275]
      Dipole moment [D]:                     12.785412
        Cartesian components [D]:          [ -0.666896,  11.872478,   4.697475]
      RMS size of the density [Ang]:         3.207144
        Cartesian components [Ang]:        [  2.094123,   1.775993,   1.657188]
    
    Exciton analysis of the difference density matrix
      <r_h> [Ang]:                  [ -0.187160,   0.408031,   0.835305]
      <r_e> [Ang]:                  [ -0.800653,  -1.465249,   0.241488]
      |<r_e - r_h>| [Ang]:            2.058681
      Hole size [Ang]:                0.122780
        Cartesian components [Ang]: [  0.070885,   0.070886,   0.070891]
      Electron size [Ang]:            3.001665
        Cartesian components [Ang]: [  2.357604,   1.570001,   0.993374]

  Singlet 5 :
  -------------------------
    NOs
      Occupation of frontier NOs:
         0.0000   1.0000   1.0000   2.0000
      Number of electrons: 80.000000
      Number of unpaired electrons: n_u =  2.00000, n_u,nl =  2.00000
      NO participation ratio (PR_NO):  2.000000
    
    NDOs
      Leading detachment eigenvalues:
        -1.0000  -0.0000
      Leading attachment eigenvalues:
         1.0000   0.0000
      Number of detached / attached electrons: p_D =  1.0000, p_A =  1.0000
      Number of involved orbitals: PR_D =  1.000000, PR_A =  1.000000
    
    Mulliken Population Analysis (State/Difference DM)
    Atom      Charge (e)              h+              e-           Del q
    --------------------------------------------------------------------
     1 O        0.317594        0.991273       -0.006229        0.985044
     2 H        0.343839        0.004179       -0.000490        0.003690
     3 H        0.317536        0.004546       -0.000674        0.003872
     4 O       -0.678237       -0.000000       -0.014003       -0.014003
     5 H        0.321014       -0.000000       -0.000236       -0.000236
     6 H        0.352839        0.000000       -0.000194       -0.000194
     7 O       -0.726300       -0.000000       -0.002134       -0.002135
     8 H        0.380322        0.000000       -0.000166       -0.000166
     9 H        0.334561        0.000000       -0.000101       -0.000101
    10 O       -0.766989       -0.000003       -0.112336       -0.112340
    11 H        0.305899       -0.000000       -0.002075       -0.002075
    12 H        0.354868        0.000001       -0.005626       -0.005625
    13 O       -0.654345        0.000002       -0.023400       -0.023398
    14 H        0.315827        0.000000       -0.000572       -0.000572
    15 H        0.343489        0.000000       -0.002186       -0.002186
    16 O       -0.611451        0.000000       -0.003018       -0.003018
    17 H        0.300232       -0.000000       -0.000455       -0.000455
    18 H        0.319465        0.000000       -0.000494       -0.000494
    19 O       -1.436929        0.000000       -0.681622       -0.681622
    20 H        0.341457       -0.000001       -0.005870       -0.005871
    21 H        0.374274        0.000000       -0.006714       -0.006714
    22 O       -0.798706       -0.000000       -0.125791       -0.125791
    23 H        0.274547       -0.000000       -0.001896       -0.001896
    24 H        0.375193        0.000000       -0.003716       -0.003716
    --------------------------------------------------------------------
    Sum:        0.000000        1.000000       -1.000000        0.000000
    
    Multipole moment analysis of the density matrix
      Molecular charge:                      0.000000
      Number of electrons:                   80.000000
        Center of electronic charge [Ang]: [  0.022445,   0.000748,   0.003295]
      Total nuclear charge:                  80.000000
        Center of nuclear charge [Ang]:    [ -0.011409,   0.007949,   0.005275]
      Dipole moment [D]:                     13.321505
        Cartesian components [D]:          [-13.008753,   2.766939,   0.760838]
      RMS size of the density [Ang]:         3.210953
        Cartesian components [Ang]:        [  2.101603,   1.770044,   1.661454]
    
    Exciton analysis of the difference density matrix
      <r_h> [Ang]:                  [ -0.187160,   0.408031,   0.835305]
      <r_e> [Ang]:                  [  1.768852,   0.430473,   1.061074]
      |<r_e - r_h>| [Ang]:            1.969126
      Hole size [Ang]:                0.122780
        Cartesian components [Ang]: [  0.070885,   0.070886,   0.070891]
      Electron size [Ang]:            3.059349
        Cartesian components [Ang]: [  2.369400,   1.642212,   1.024060]

  Singlet 6 :
  -------------------------
    NOs
      Occupation of frontier NOs:
         0.0000   1.0000   1.0000   2.0000
      Number of electrons: 80.000000
      Number of unpaired electrons: n_u =  2.00000, n_u,nl =  2.00000
      NO participation ratio (PR_NO):  2.000000
    
    NDOs
      Leading detachment eigenvalues:
        -1.0000  -0.0000
      Leading attachment eigenvalues:
         1.0000   0.0000
      Number of detached / attached electrons: p_D =  1.0000, p_A =  1.0000
      Number of involved orbitals: PR_D =  1.000000, PR_A =  1.000000
    
    Mulliken Population Analysis (State/Difference DM)
    Atom      Charge (e)              h+              e-           Del q
    --------------------------------------------------------------------
     1 O        0.289490        0.991273       -0.034332        0.956941
     2 H        0.342827        0.004179       -0.001502        0.002678
     3 H        0.316592        0.004546       -0.001618        0.002928
     4 O       -0.667428       -0.000000       -0.003194       -0.003194
     5 H        0.320968       -0.000000       -0.000282       -0.000282
     6 H        0.352922        0.000000       -0.000112       -0.000111
     7 O       -0.763238       -0.000000       -0.039073       -0.039073
     8 H        0.379349        0.000000       -0.001140       -0.001140
     9 H        0.334304        0.000000       -0.000357       -0.000357
    10 O       -0.906319       -0.000003       -0.251667       -0.251670
    11 H        0.263986       -0.000000       -0.043988       -0.043988
    12 H        0.207922        0.000001       -0.152573       -0.152572
    13 O       -0.656639        0.000002       -0.025694       -0.025691
    14 H        0.309827        0.000000       -0.006573       -0.006573
    15 H        0.344740        0.000000       -0.000935       -0.000935
    16 O       -0.611038        0.000000       -0.002605       -0.002605
    17 H        0.299946       -0.000000       -0.000741       -0.000741
    18 H        0.319542        0.000000       -0.000417       -0.000417
    19 O       -1.156382        0.000000       -0.401075       -0.401075
    20 H        0.338000       -0.000001       -0.009327       -0.009328
    21 H        0.373021        0.000000       -0.007968       -0.007967
    22 O       -0.685730       -0.000000       -0.012815       -0.012815
    23 H        0.275781       -0.000000       -0.000662       -0.000662
    24 H        0.377558        0.000000       -0.001351       -0.001351
    --------------------------------------------------------------------
    Sum:       -0.000000        1.000000       -1.000000       -0.000000
    
    Multipole moment analysis of the density matrix
      Molecular charge:                      -0.000000
      Number of electrons:                   80.000000
        Center of electronic charge [Ang]: [  0.014172,  -0.010471,   0.003010]
      Total nuclear charge:                  80.000000
        Center of nuclear charge [Ang]:    [ -0.011409,   0.007949,   0.005275]
      Dipole moment [D]:                     12.143991
        Cartesian components [D]:          [ -9.829667,   7.077901,   0.870332]
      RMS size of the density [Ang]:         3.205193
        Cartesian components [Ang]:        [  2.090994,   1.773903,   1.659600]
    
    Exciton analysis of the difference density matrix
      <r_h> [Ang]:                  [ -0.187160,   0.408031,   0.835305]
      <r_e> [Ang]:                  [  1.106984,  -0.467045,   1.038278]
      |<r_e - r_h>| [Ang]:            1.575362
      Hole size [Ang]:                0.122780
        Cartesian components [Ang]: [  0.070885,   0.070886,   0.070891]
      Electron size [Ang]:            2.881993
        Cartesian components [Ang]: [  1.983696,   1.940878,   0.777065]

  Singlet 7 :
  -------------------------
    NOs
      Occupation of frontier NOs:
         0.0000   1.0000   1.0000   2.0000
      Number of electrons: 80.000000
      Number of unpaired electrons: n_u =  2.00000, n_u,nl =  2.00000
      NO participation ratio (PR_NO):  2.000000
    
    NDOs
      Leading detachment eigenvalues:
        -1.0000  -0.0000
      Leading attachment eigenvalues:
         1.0000   0.0000
      Number of detached / attached electrons: p_D =  1.0000, p_A =  1.0000
      Number of involved orbitals: PR_D =  1.000000, PR_A =  1.000000
    
    Mulliken Population Analysis (State/Difference DM)
    Atom      Charge (e)              h+              e-           Del q
    --------------------------------------------------------------------
     1 O        0.310067        0.991273       -0.013755        0.977518
     2 H        0.343411        0.004179       -0.000918        0.003262
     3 H        0.316166        0.004546       -0.002044        0.002502
     4 O       -0.669188       -0.000000       -0.004954       -0.004954
     5 H        0.321168       -0.000000       -0.000083       -0.000083
     6 H        0.352914        0.000000       -0.000119       -0.000119
     7 O       -0.741763       -0.000000       -0.017597       -0.017598
     8 H        0.379894        0.000000       -0.000595       -0.000595
     9 H        0.334321        0.000000       -0.000341       -0.000341
    10 O       -0.886976       -0.000003       -0.232324       -0.232327
    11 H        0.267175       -0.000000       -0.040799       -0.040799
    12 H        0.217782        0.000001       -0.142713       -0.142712
    13 O       -0.663815        0.000002       -0.032870       -0.032867
    14 H        0.302933        0.000000       -0.013467       -0.013467
    15 H        0.344111        0.000000       -0.001563       -0.001563
    16 O       -0.608884        0.000000       -0.000451       -0.000451
    17 H        0.300481       -0.000000       -0.000206       -0.000207
    18 H        0.319881        0.000000       -0.000077       -0.000077
    19 O       -1.217281        0.000000       -0.461974       -0.461974
    20 H        0.337449       -0.000001       -0.009878       -0.009879
    21 H        0.370173        0.000000       -0.010816       -0.010815
    22 O       -0.683708       -0.000000       -0.010793       -0.010793
    23 H        0.275960       -0.000000       -0.000483       -0.000483
    24 H        0.377730        0.000000       -0.001180       -0.001179
    --------------------------------------------------------------------
    Sum:       -0.000000        1.000000       -1.000000       -0.000000
    
    Multipole moment analysis of the density matrix
      Molecular charge:                      -0.000000
      Number of electrons:                   80.000000
        Center of electronic charge [Ang]: [  0.016820,  -0.007783,   0.004461]
      Total nuclear charge:                  80.000000
        Center of nuclear charge [Ang]:    [ -0.011409,   0.007949,   0.005275]
      Dipole moment [D]:                     12.421712
        Cartesian components [D]:          [-10.847163,   6.044840,   0.312884]
      RMS size of the density [Ang]:         3.206654
        Cartesian components [Ang]:        [  2.092533,   1.773937,   1.660447]
    
    Exciton analysis of the difference density matrix
      <r_h> [Ang]:                  [ -0.187160,   0.408031,   0.835305]
[...]
1234  O 7   d 2     -0.00024  -0.00002  -0.00010
1235  O 7   d 3      0.00021  -0.00028   0.00074
1236  O 7   d 4     -0.00012  -0.00022   0.00094
1237  O 7   d 5     -0.00008   0.00031  -0.00035
1238  O 7   d 1      0.00248   0.00139  -0.00601
1239  O 7   d 2     -0.00269   0.00078  -0.00240
1240  O 7   d 3     -0.00022   0.00325  -0.00614
1241  O 7   d 4      0.00323   0.00092  -0.00621
1242  O 7   d 5     -0.00004  -0.00314   0.00478
1243  O 7   d 1      0.00293   0.01582  -0.03335
1244  O 7   d 2     -0.00524   0.01077  -0.01014
1245  O 7   d 3      0.00232   0.01799  -0.02852
1246  O 7   d 4      0.00861   0.01619  -0.02961
1247  O 7   d 5      0.00010  -0.02166   0.02038
1248  O 7   f 1      0.00006   0.00005  -0.00008
1249  O 7   f 2     -0.00001  -0.00002   0.00007
1250  O 7   f 3     -0.00002  -0.00003  -0.00005
1251  O 7   f 4      0.00000   0.00002   0.00000
1252  O 7   f 5     -0.00001   0.00002   0.00000
1253  O 7   f 6      0.00003   0.00004  -0.00001
1254  O 7   f 7     -0.00003  -0.00000   0.00002
1255  O 7   f 1     -0.00059  -0.00033   0.00054
1256  O 7   f 2      0.00026   0.00014  -0.00031
1257  O 7   f 3      0.00020   0.00019   0.00032
1258  O 7   f 4      0.00012  -0.00013  -0.00009
1259  O 7   f 5      0.00003  -0.00019   0.00017
1260  O 7   f 6     -0.00042  -0.00033   0.00007
1261  O 7   f 7      0.00016   0.00007  -0.00027
1262  O 7   f 1      0.00052  -0.00370   0.00837
1263  O 7   f 2     -0.00255   0.00111  -0.00536
1264  O 7   f 3     -0.00073  -0.00231   0.00417
1265  O 7   f 4      0.00059   0.00229  -0.00382
1266  O 7   f 5     -0.00071  -0.00333   0.00428
1267  O 7   f 6     -0.00127  -0.00095   0.00262
1268  O 7   f 7      0.00158   0.00271   0.00145
1269  O 7   g 1      0.00007  -0.00002   0.00007
1270  O 7   g 2     -0.00004   0.00003  -0.00006
1271  O 7   g 3     -0.00005  -0.00003  -0.00000
1272  O 7   g 4      0.00001  -0.00003   0.00010
1273  O 7   g 5      0.00002   0.00003  -0.00002
1274  O 7   g 6     -0.00003   0.00003  -0.00003
1275  O 7   g 7      0.00001   0.00002  -0.00003
1276  O 7   g 8      0.00003   0.00002   0.00002
1277  O 7   g 9      0.00002   0.00002   0.00004
1278  O 7   g 1     -0.00053   0.00072  -0.00146
1279  O 7   g 2      0.00038  -0.00033   0.00096
1280  O 7   g 3      0.00056  -0.00002   0.00006
1281  O 7   g 4     -0.00006   0.00050  -0.00140
1282  O 7   g 5     -0.00011  -0.00027   0.00018
1283  O 7   g 6      0.00013  -0.00045   0.00065
1284  O 7   g 7     -0.00007   0.00007   0.00026
1285  O 7   g 8     -0.00041   0.00026  -0.00050
1286  O 7   g 9     -0.00030  -0.00029  -0.00036
1287  O 7   h 1      0.00007  -0.00007   0.00011
1288  O 7   h 2      0.00002   0.00003  -0.00003
1289  O 7   h 3     -0.00003   0.00000  -0.00000
1290  O 7   h 4      0.00001  -0.00005   0.00014
1291  O 7   h 5      0.00004  -0.00004   0.00009
1292  O 7   h 6      0.00006  -0.00003   0.00003
1293  O 7   h 7      0.00002   0.00001   0.00004
1294  O 7   h 8     -0.00003   0.00008  -0.00014
1295  O 7   h 9      0.00009  -0.00002   0.00005
1296  O 7   h10      0.00002   0.00001  -0.00006
1297  O 7   h11      0.00001   0.00002   0.00003
1298  H 13  s       -0.00079   0.00109  -0.00102
1299  H 13  s       -0.00489   0.00021   0.00071
1300  H 13  s        0.00541   0.07982  -0.12801
1301  H 13  s        0.10998   0.08984  -0.15745
1302  H 13  s       -0.03609   0.18346  -0.23183
1303  H 13  px       0.00044  -0.00031   0.00045
1304  H 13  py      -0.00015   0.00022  -0.00018
1305  H 13  pz      -0.00018   0.00021  -0.00021
1306  H 13  px      -0.00249   0.00114  -0.00191
1307  H 13  py       0.00070  -0.00053   0.00088
1308  H 13  pz       0.00055  -0.00035   0.00091
1309  H 13  px       0.01783   0.01225  -0.02894
1310  H 13  py      -0.00850  -0.00507   0.00644
1311  H 13  pz      -0.00545  -0.00380   0.00556
1312  H 13  px       0.02173   0.05161  -0.08333
1313  H 13  py      -0.01432  -0.02558   0.01613
1314  H 13  pz      -0.00501  -0.01775   0.02053
1315  H 13  d 1      0.00012   0.00019  -0.00024
1316  H 13  d 2      0.00003  -0.00003   0.00008
1317  H 13  d 3     -0.00011   0.00005   0.00010
1318  H 13  d 4      0.00006   0.00018  -0.00024
1319  H 13  d 5     -0.00008  -0.00006   0.00017
1320  H 13  d 1     -0.00099  -0.00207   0.00317
1321  H 13  d 2      0.00005   0.00063  -0.00095
1322  H 13  d 3      0.00028  -0.00097   0.00131
1323  H 13  d 4     -0.00048  -0.00169   0.00278
1324  H 13  d 5      0.00044   0.00136  -0.00360
1325  H 13  d 1     -0.00989   0.00052  -0.00578
1326  H 13  d 2      0.00290   0.00018   0.00499
1327  H 13  d 3     -0.00901   0.00044   0.00608
1328  H 13  d 4     -0.00462   0.00071  -0.00397
1329  H 13  d 5      0.00676  -0.00099  -0.00756
1330  H 13  f 1      0.00003  -0.00014   0.00029
1331  H 13  f 2      0.00006   0.00006  -0.00017
1332  H 13  f 3     -0.00001   0.00001  -0.00009
1333  H 13  f 4     -0.00001   0.00007  -0.00020
1334  H 13  f 5      0.00002  -0.00009   0.00011
1335  H 13  f 6     -0.00001  -0.00005   0.00020
1336  H 13  f 7     -0.00000   0.00010  -0.00010
1337  H 13  f 1     -0.00182  -0.00030   0.00015
1338  H 13  f 2      0.00060   0.00058   0.00073
1339  H 13  f 3      0.00054   0.00011  -0.00010
1340  H 13  f 4      0.00082   0.00027   0.00021
1341  H 13  f 5     -0.00125   0.00021   0.00108
1342  H 13  f 6     -0.00046  -0.00025   0.00028
1343  H 13  f 7      0.00039  -0.00048  -0.00173
1344  H 13  g 1     -0.00010  -0.00003   0.00010
1345  H 13  g 2      0.00006   0.00008   0.00000
1346  H 13  g 3      0.00005  -0.00000  -0.00007
1347  H 13  g 4     -0.00004  -0.00003  -0.00000
1348  H 13  g 5      0.00006  -0.00000  -0.00006
1349  H 13  g 6      0.00007   0.00003  -0.00005
1350  H 13  g 7     -0.00007   0.00001   0.00007
1351  H 13  g 8      0.00000   0.00001   0.00009
1352  H 13  g 9      0.00001  -0.00003  -0.00011
1353  H 14  s       -0.00095   0.00138  -0.00089
1354  H 14  s       -0.00382   0.00144  -0.00361
1355  H 14  s       -0.00301  -0.01248   0.03740
1356  H 14  s        0.08132  -0.08548   0.21993
1357  H 14  s       -0.13322  -0.01849  -0.05849
1358  H 14  px       0.00009  -0.00020   0.00050
1359  H 14  py       0.00044  -0.00043   0.00079
1360  H 14  pz       0.00036  -0.00042   0.00070
1361  H 14  px      -0.00066   0.00084  -0.00213
1362  H 14  py      -0.00133   0.00060  -0.00257
1363  H 14  pz      -0.00100   0.00044  -0.00176
1364  H 14  px       0.00681  -0.00530   0.01566
1365  H 14  py       0.01069  -0.01482   0.03623
1366  H 14  pz       0.01009  -0.00923   0.02004
1367  H 14  px       0.01718  -0.00600   0.00532
1368  H 14  py       0.01640  -0.01975   0.05837
1369  H 14  pz       0.01855   0.00033   0.01316
1370  H 14  d 1     -0.00001  -0.00021   0.00006
1371  H 14  d 2      0.00001  -0.00008   0.00013
1372  H 14  d 3     -0.00006  -0.00003   0.00003
1373  H 14  d 4     -0.00007  -0.00013   0.00012
1374  H 14  d 5      0.00000  -0.00002   0.00007
1375  H 14  d 1      0.00040   0.00075   0.00070
1376  H 14  d 2      0.00017   0.00003   0.00070
1377  H 14  d 3      0.00031   0.00049  -0.00102
1378  H 14  d 4      0.00067   0.00057  -0.00002
1379  H 14  d 5      0.00011   0.00045  -0.00134
1380  H 14  d 1      0.00770  -0.00617   0.01134
1381  H 14  d 2      0.00815  -0.00203   0.01436
1382  H 14  d 3      0.00026   0.00365  -0.00891
1383  H 14  d 4      0.00554  -0.00319   0.00656
1384  H 14  d 5     -0.00199   0.00346  -0.01328
1385  H 14  f 1      0.00000  -0.00001   0.00003
1386  H 14  f 2      0.00001  -0.00002   0.00015
1387  H 14  f 3     -0.00001  -0.00003   0.00005
1388  H 14  f 4      0.00001   0.00004  -0.00011
1389  H 14  f 5     -0.00000  -0.00001   0.00012
1390  H 14  f 6      0.00003   0.00003  -0.00007
1391  H 14  f 7      0.00002  -0.00001  -0.00010
1392  H 14  f 1      0.00052   0.00022  -0.00126
1393  H 14  f 2      0.00157  -0.00015   0.00114
1394  H 14  f 3      0.00060   0.00110  -0.00153
1395  H 14  f 4     -0.00068   0.00040  -0.00208
1396  H 14  f 5      0.00036   0.00043  -0.00092
1397  H 14  f 6     -0.00037  -0.00007  -0.00152
1398  H 14  f 7     -0.00118   0.00042  -0.00142
1399  H 14  g 1     -0.00006   0.00002  -0.00011
1400  H 14  g 2      0.00006  -0.00002  -0.00009
1401  H 14  g 3      0.00007   0.00003  -0.00001
1402  H 14  g 4     -0.00002   0.00009  -0.00025
1403  H 14  g 5     -0.00005  -0.00002  -0.00005
1404  H 14  g 6     -0.00003   0.00004  -0.00009
1405  H 14  g 7     -0.00001  -0.00004   0.00003
1406  H 14  g 8     -0.00012   0.00003  -0.00015
1407  H 14  g 9     -0.00007   0.00001   0.00003
1408  O 8   s       -0.00077  -0.00009   0.00194
1409  O 8   s        0.01740   0.00558  -0.04635
1410  O 8   s       -0.00111  -0.00014  -0.00040
1411  O 8   s        0.03587   0.00486  -0.03080
1412  O 8   s       -0.00933   0.06264  -0.21220
1413  O 8   s       -0.18434   0.06933  -0.72896
1414  O 8   px       0.01337   0.00198  -0.00748
1415  O 8   py      -0.00796  -0.00329  -0.00157
1416  O 8   pz      -0.00530   0.01238   0.02921
1417  O 8   px       0.02413   0.00222  -0.00787
1418  O 8   py      -0.01266  -0.00541  -0.00236
1419  O 8   pz      -0.00658   0.02278   0.04557
1420  O 8   px       0.02436   0.01053  -0.03774
1421  O 8   py      -0.02250  -0.00918  -0.00611
1422  O 8   pz      -0.02724   0.01490   0.08284
1423  O 8   px      -0.05661   0.01814  -0.18983
1424  O 8   py      -0.01390   0.01825  -0.03197
1425  O 8   pz      -0.10518  -0.05819   0.08619
1426  O 8   px      -0.06224   0.07277   0.00903
1427  O 8   py      -0.05595  -0.00632   0.01065
1428  O 8   pz      -0.13805   0.01661   0.27858
1429  O 8   d 1      0.00004   0.00002  -0.00007
1430  O 8   d 2     -0.00003  -0.00004  -0.00002
1431  O 8   d 3     -0.00012  -0.00015  -0.00009
1432  O 8   d 4     -0.00014  -0.00016  -0.00015
1433  O 8   d 5     -0.00011  -0.00015  -0.00031
1434  O 8   d 1     -0.00053  -0.00018   0.00058
1435  O 8   d 2      0.00023   0.00037   0.00064
1436  O 8   d 3     -0.00011   0.00042   0.00155
1437  O 8   d 4      0.00089   0.00102   0.00157
1438  O 8   d 5      0.00092   0.00065   0.00172
1439  O 8   d 1      0.00015   0.00206  -0.00671
1440  O 8   d 2     -0.00036  -0.00124  -0.00588
1441  O 8   d 3      0.00313   0.00017  -0.01434
1442  O 8   d 4     -0.01392  -0.01023  -0.00554
1443  O 8   d 5     -0.00743  -0.00069  -0.01349
1444  O 8   d 1     -0.00643   0.01567  -0.01195
1445  O 8   d 2      0.00024  -0.00322  -0.01819
1446  O 8   d 3      0.00333  -0.02612  -0.05671
1447  O 8   d 4     -0.06779  -0.03885   0.00565
1448  O 8   d 5     -0.02863   0.01485  -0.02000
1449  O 8   f 1     -0.00002  -0.00002   0.00018
1450  O 8   f 2     -0.00001   0.00005   0.00021
1451  O 8   f 3     -0.00003   0.00002   0.00007
1452  O 8   f 4     -0.00001   0.00015  -0.00012
1453  O 8   f 5     -0.00008   0.00012   0.00039
1454  O 8   f 6      0.00002   0.00004   0.00023
1455  O 8   f 7      0.00010   0.00002  -0.00003
1456  O 8   f 1      0.00002   0.00018  -0.00132
1457  O 8   f 2      0.00010  -0.00015  -0.00142
1458  O 8   f 3     -0.00013  -0.00018  -0.00004
1459  O 8   f 4     -0.00012  -0.00100   0.00222
1460  O 8   f 5      0.00075  -0.00033  -0.00252
1461  O 8   f 6     -0.00051  -0.00022  -0.00131
1462  O 8   f 7     -0.00056   0.00004  -0.00029
1463  O 8   f 1     -0.00057   0.00449  -0.00458
1464  O 8   f 2      0.00053  -0.00140  -0.00947
1465  O 8   f 3     -0.00006  -0.00018   0.00060
1466  O 8   f 4      0.00791   0.00387   0.01645
1467  O 8   f 5      0.00332  -0.01254  -0.02674
1468  O 8   f 6     -0.01301  -0.00891  -0.00414
1469  O 8   f 7     -0.00549   0.00245  -0.00286
1470  O 8   g 1      0.00002  -0.00005  -0.00001
1471  O 8   g 2     -0.00001   0.00005   0.00008
1472  O 8   g 3      0.00001   0.00001   0.00005
1473  O 8   g 4      0.00004   0.00004  -0.00004
1474  O 8   g 5      0.00008  -0.00010  -0.00028
1475  O 8   g 6     -0.00006  -0.00012   0.00002
1476  O 8   g 7     -0.00001   0.00015   0.00023
1477  O 8   g 8      0.00007   0.00011  -0.00006
1478  O 8   g 9      0.00003  -0.00002  -0.00007
1479  O 8   g 1     -0.00000   0.00091  -0.00099
1480  O 8   g 2      0.00017  -0.00020  -0.00219
1481  O 8   g 3     -0.00031  -0.00036  -0.00035
1482  O 8   g 4     -0.00028  -0.00049   0.00028
1483  O 8   g 5     -0.00015   0.00188   0.00141
1484  O 8   g 6     -0.00013   0.00030   0.00371
1485  O 8   g 7      0.00019  -0.00196  -0.00374
1486  O 8   g 8     -0.00127  -0.00102  -0.00058
1487  O 8   g 9     -0.00072   0.00032   0.00040
1488  O 8   h 1      0.00002   0.00015  -0.00011
1489  O 8   h 2      0.00004   0.00003  -0.00029
1490  O 8   h 3     -0.00004  -0.00011  -0.00014
1491  O 8   h 4      0.00000  -0.00013  -0.00006
1492  O 8   h 5      0.00004   0.00006   0.00009
1493  O 8   h 6      0.00005   0.00000   0.00005
1494  O 8   h 7      0.00015   0.00011  -0.00019
1495  O 8   h 8     -0.00006  -0.00006   0.00025
1496  O 8   h 9     -0.00001  -0.00019  -0.00033
1497  O 8   h10     -0.00011  -0.00007  -0.00002
1498  O 8   h11     -0.00009   0.00002   0.00010
1499  H 15  s       -0.00166  -0.00026   0.00457
1500  H 15  s        0.00173   0.00471  -0.00293
1501  H 15  s       -0.05638  -0.02182   0.26063
1502  H 15  s       -0.06075  -0.13513   0.09746
1503  H 15  s       -0.37310   0.15117   1.04423
1504  H 15  px      -0.00005   0.00021   0.00092
1505  H 15  py      -0.00002  -0.00020  -0.00028
1506  H 15  pz       0.00066  -0.00048  -0.00271
1507  H 15  px      -0.00012   0.00011  -0.00227
1508  H 15  py       0.00013   0.00114   0.00037
1509  H 15  pz       0.00100   0.00166   0.00272
1510  H 15  px      -0.00658   0.00692   0.01097
1511  H 15  py      -0.00291  -0.00824   0.00439
1512  H 15  pz      -0.00948  -0.02309   0.03817
1513  H 15  px      -0.02667  -0.01184  -0.01853
1514  H 15  py       0.00323  -0.00551   0.00634
1515  H 15  pz      -0.03235  -0.06773   0.04354
1516  H 15  d 1     -0.00002  -0.00009  -0.00005
1517  H 15  d 2      0.00010   0.00009  -0.00023
1518  H 15  d 3      0.00039   0.00006  -0.00090
1519  H 15  d 4      0.00007  -0.00020  -0.00008
1520  H 15  d 5     -0.00003   0.00021   0.00012
1521  H 15  d 1      0.00017   0.00076   0.00011
1522  H 15  d 2     -0.00111  -0.00116   0.00214
1523  H 15  d 3     -0.00274  -0.00155   0.01055
1524  H 15  d 4     -0.00024   0.00291   0.00027
1525  H 15  d 5      0.00003  -0.00136  -0.00084
1526  H 15  d 1     -0.00019  -0.00046  -0.00081
1527  H 15  d 2     -0.00041  -0.00722   0.00068
1528  H 15  d 3     -0.01010  -0.01642   0.00590
1529  H 15  d 4     -0.00854  -0.00300   0.00609
1530  H 15  d 5      0.00300   0.00044  -0.00393
1531  H 15  f 1     -0.00007  -0.00005   0.00001
1532  H 15  f 2     -0.00004   0.00011   0.00001
1533  H 15  f 3     -0.00014  -0.00005   0.00027
1534  H 15  f 4     -0.00007   0.00001   0.00097
1535  H 15  f 5      0.00017   0.00043  -0.00012
1536  H 15  f 6     -0.00010   0.00001   0.00024
1537  H 15  f 7     -0.00000  -0.00014  -0.00007
1538  H 15  f 1      0.00023  -0.00005  -0.00004
1539  H 15  f 2      0.00046   0.00014  -0.00040
1540  H 15  f 3     -0.00037  -0.00186   0.00054
1541  H 15  f 4     -0.00303  -0.00246   0.00227
1542  H 15  f 5     -0.00144   0.00019   0.00124
1543  H 15  f 6      0.00104  -0.00118  -0.00248
1544  H 15  f 7      0.00005   0.00081   0.00057
1545  H 15  g 1      0.00000   0.00002  -0.00000
1546  H 15  g 2     -0.00001  -0.00006  -0.00002
1547  H 15  g 3      0.00004   0.00005  -0.00006
1548  H 15  g 4     -0.00007  -0.00017   0.00012
1549  H 15  g 5     -0.00026  -0.00012   0.00039
1550  H 15  g 6     -0.00003   0.00012   0.00004
1551  H 15  g 7      0.00006  -0.00008  -0.00011
1552  H 15  g 8     -0.00001  -0.00002  -0.00005
1553  H 15  g 9     -0.00001   0.00003   0.00001
1554  H 16  s       -0.00121  -0.00122   0.00193
1555  H 16  s       -0.00382   0.00279   0.00024
1556  H 16  s        0.12098  -0.01395   0.17152
1557  H 16  s        0.31121   0.11272   0.15703
1558  H 16  s        0.28317  -0.02808  -0.33614
1559  H 16  px      -0.00039  -0.00058   0.00051
1560  H 16  py       0.00026   0.00025  -0.00004
1561  H 16  pz      -0.00035  -0.00033   0.00036
1562  H 16  px      -0.00008   0.00092  -0.00126
1563  H 16  py      -0.00183  -0.00133  -0.00002
1564  H 16  pz       0.00009  -0.00036  -0.00055
1565  H 16  px      -0.05424  -0.02828  -0.05889
1566  H 16  py      -0.00893  -0.00293  -0.00142
1567  H 16  pz      -0.02432   0.01271  -0.00156
1568  H 16  px      -0.08060   0.02783  -0.09671
1569  H 16  py      -0.06228  -0.04812   0.00949
1570  H 16  pz       0.01113   0.07712  -0.03698
1571  H 16  d 1     -0.00011   0.00007   0.00050
1572  H 16  d 2     -0.00015  -0.00027   0.00029
1573  H 16  d 3      0.00007   0.00057   0.00035
1574  H 16  d 4      0.00008   0.00027  -0.00016
1575  H 16  d 5      0.00005   0.00028  -0.00044
1576  H 16  d 1      0.00268   0.00107  -0.00163
1577  H 16  d 2      0.00182   0.00124  -0.00180
1578  H 16  d 3     -0.00128  -0.00524  -0.00618
1579  H 16  d 4      0.00312  -0.00239   0.00304
1580  H 16  d 5      0.00265   0.00071   0.00889
1581  H 16  d 1      0.01073   0.01103   0.00316
1582  H 16  d 2      0.00146  -0.00269  -0.00011
1583  H 16  d 3     -0.01064  -0.01214  -0.00820
1584  H 16  d 4      0.00772  -0.01452  -0.01135
1585  H 16  d 5      0.01181   0.01202   0.01454
1586  H 16  f 1     -0.00005  -0.00004  -0.00032
1587  H 16  f 2     -0.00004   0.00012  -0.00019
1588  H 16  f 3      0.00005   0.00023   0.00016
1589  H 16  f 4      0.00027   0.00019   0.00048
1590  H 16  f 5     -0.00018   0.00010   0.00045
1591  H 16  f 6     -0.00034  -0.00002  -0.00054
1592  H 16  f 7     -0.00026  -0.00008  -0.00051
1593  H 16  f 1     -0.00294  -0.00217   0.00218
1594  H 16  f 2     -0.00220  -0.00118   0.00302
1595  H 16  f 3      0.00005  -0.00015   0.00003
1596  H 16  f 4      0.00059  -0.00079  -0.00048
1597  H 16  f 5      0.00203   0.00635   0.00460
1598  H 16  f 6     -0.00005   0.00225   0.00021
1599  H 16  f 7     -0.00009  -0.00127  -0.00389
1600  H 16  g 1      0.00019   0.00016  -0.00008
1601  H 16  g 2      0.00019   0.00007  -0.00019
1602  H 16  g 3      0.00000  -0.00010  -0.00013
1603  H 16  g 4     -0.00006  -0.00004   0.00004
1604  H 16  g 5      0.00001   0.00032   0.00031
1605  H 16  g 6     -0.00008  -0.00015  -0.00023
1606  H 16  g 7     -0.00006  -0.00040  -0.00037
1607  H 16  g 8     -0.00003  -0.00013   0.00021
1608  H 16  g 9      0.00001   0.00004   0.00029

 -----------------------------------------------------------------
                    Cartesian Multipole Moments
 -----------------------------------------------------------------
    Charge (ESU x 10^10)
                 0.0000
    Dipole Moment (Debye)
         X      -3.6136      Y       2.8747      Z       1.8453
       Tot       4.9727
    Quadrupole Moments (Debye-Ang)
        XX     -67.8916     XY     -12.5507     YY     -36.1267
        XZ      -3.4512     YZ       8.7835     ZZ     -46.0743
    Octopole Moments (Debye-Ang^2)
       XXX     -41.5338    XXY      20.6953    XYY      -9.1614
       YYY      42.2351    XXZ     -47.9147    XYZ       5.5249
       YYZ      43.1037    XZZ      -1.9949    YZZ       7.5900
       ZZZ      56.7583
    Hexadecapole Moments (Debye-Ang^3)
      XXXX   -1608.4459   XXXY    -453.5392   XXYY    -480.8391
      XYYY    -216.4460   YYYY    -669.6971   XXXZ    -318.6738
      XXYZ     -95.3656   XYYZ     -53.8549   YYYZ    -115.6573
      XXZZ    -368.4332   XYZZ     -10.1774   YYZZ    -166.5271
      XZZZ    -150.5478   YZZZ     -61.2450   ZZZZ    -843.5044
 -----------------------------------------------------------------
 Total job time:  358423.32s(wall), 358186.53s(cpu) 
 Sun Dec 29 21:10:24 2024

        *************************************************************
        *                                                           *
        *  Thank you very much for using Q-Chem.  Have a nice day.  *
        *                                                           *
        *************************************************************


