                  Welcome to Q-Chem
     A Quantum Leap Into The Future Of Chemistry


 Q-Chem 6.2 (devel), Q-Chem, Inc., Pleasanton, CA (2024)

 E. Epifanovsky,  A. T. B. Gilbert,  Xintian Feng,  Joonho Lee,  Yuezhi Mao,  
 N. Mardirossian,  P. Pokhilko,  A. White,  M. Wormit,  M. P. Coons,  
 A. L. Dempwolff,  Zhengting Gan,  D. Hait,  P. R. Horn,  L. D. Jacobson,  
 I. Kaliman,  J. Kussmann,  A. W. Lange,  Ka Un Lao,  D. S. Levine,  Jie Liu,  
 S. C. McKenzie,  A. F. Morrison,  K. D. Nanda,  F. Plasser,  D. R. Rehn,  
 M. L. Vidal,  Zhi-Qiang You,  Ying Zhu,  Huseyin Aksu,  B. Alam,  
 B. Albrecht,  A. Aldossary,  E. Alguire,  J. H. Andersen,  
 J. E. Arias-Martinez,  V. Athavale,  D. Barton,  K. Begam,  A. Behn,  
 N. Bellonzi,  Y. A. Bernard,  E. J. Berquist,  H. Burton,  A. Carreras,  
 K. Carter-Fenk,  Mathew Chow,  Romit Chakraborty,  Chandrima Chakravarty,  
 Junhan Chen,  A. D. Chien,  K. D. Closser,  V. Cofer-Shabica,  L. Cunha,  
 S. Dasgupta,  Jia Deng,  Joseph Dickinson,  M. de Wergifosse,  
 M. Diedenhofen,  Hainam Do,  Wenjie Dou,  S. Ehlert,  Po-Tung Fang,  
 S. Fatehi,  Qingguo Feng,  Jonathan Fetherolf,  T. Friedhoff,  
 Thomas Froitzheim,  Sarai Folkestad,  B. Ganoe,  J. Gayvert,  Qinghui Ge,  
 G. Gidofalvi,  M. Gimferrer,  M. Goldey,  Montgomery Gray,  J. Gomes,  
 C. Gonzalez-Espinoza,  S. Gulania,  A. Gunina,  J. A. Gyamfi,  
 M. W. D. Hanson-Heine,  P. H. P. Harbach,  A. W. Hauser,  M. F. Herbst,  
 M. Hernandez Vera,  M. Hodecker,  Z. C. Holden,  S. Houck,  Xunkun Huang,  
 Kerwin Hui,  B. C. Huynh,  K. Ikeda,  M. Ivanov,  Nayanthara K. Jayadev,  
 Hyunjun Ji,  Zuxin Jin,  Hanjie Jiang,  Subrata Jana,  B. Kaduk,  
 S. Kaehler,  R. Kang,  K. Khistyaev,  Jaehoon Kim,  Yongbin Kim,  
 P. Klunzinger,  Z. Koczor-Benda,  Joong Hoon Koh,  D. Kosenkov,  
 Saikiran Kotaru,  L. Koulias,  T. Kowalczyk,  C. M. Krauter,  K. Kue,  
 A. Kunitsa,  T. Kus,  A. Landau,  K. V. Lawler,  D. Lefrancois,  S. Lehtola,  
 Rain Li,  Shaozhi Li,  Tao E. Li,  Yi-Pei Li,  Jiashu Liang,  M. Liebenthal,  
 Hung-Hsuan Lin,  You-Sheng Lin,  Fenglai Liu,  Kuan-Yu Liu,  Xiao Liu,  
 M. Loipersberger,  A. Luenser,  C. Malbon,  Aniket Mandal,  Manisha,  
 A. Manjanath,  P. Manohar,  E. Mansoor,  S. F. Manzer,  Shan-Ping Mao,  
 A. V. Marenich,  T. Markovich,  S. Mason,  F. Matz,  S. A. Maurer,  
 Samuel May,  Alexandra McIsaac,  P. F. McLaughlin,  M. F. S. J. Menger,  
 J.-M. Mewes,  S. A. Mewes,  P. Morgante,  Mohammad Mostafanejad,  
 Madhubani Mukherjee,  J. W. Mullinax,  Quyen Nguyen,  Avik Kumar Ojha,  
 K. J. Oosterbaan,  Eno Paenurk,  Xiaoliang Pan,  G. Paran,  V. Parravicini,  
 Alexander C. Paul,  Suranjan K. Paul,  F. Pavosevic,  Zheng Pei,  S. Prager,  
 E. I. Proynov,  E. Ramos,  B. Rana,  A. E. Rask,  A. Rettig,  R. M. Richard,  
 F. Rob,  E. Rossomme,  T. Scheele,  M. Scheurer,  M. Schneider,  
 P. E. Schneider,  Tim K. Schramm,  N. Sergueev,  S. M. Sharada,  
 Hengyuan Shen,  W. Skomorowski,  D. W. Small,  C. J. Stein,  
 Alistair J. Sterling,  Yingli Su,  Yu-Chuan Su,  E. J. Sundstrom,  
 J. Talbot,  Zhen Tao,  J. Thirman,  Hung-Yi Tsai,  T. Tsuchimochi,  
 N. M. Tubman,  C. Utku,  S. P. Veccham,  O. Vydrov,  Rahel Weiss,  
 J. Wenzel,  Jonathan Wong,  J. Witte,  H. Wu,  Yanze Wu,  A. Yamada,  
 Chou-Hsun Yang,  Kun Yao,  S. Yeganeh,  S. R. Yost,  Qi Yu,  A. Zech,  
 F. Zeller,  Chongxiao Zhao,  Igor Ying Zhang,  Xing Zhang,  Yu Zhang,  
 D. Zuev,  A. Aspuru-Guzik,  A. T. Bell,  N. A. Besley,  K. B. Bravaya,  
 B. R. Brooks,  D. Casanova,  Jeng-Da Chai,  Hsing-Ta Chen,  S. Coriani,  
 C. J. Cramer,  A. E. DePrince, III,  R. A. DiStasio Jr.,  A. Dreuw,  
 B. D. Dunietz,  T. R. Furlani,  W. A. Goddard III,  S. Grimme,  
 S. Hammes-Schiffer,  T. Head-Gordon,  W. J. Hehre,  Chao-Ping Hsu,  
 T.-C. Jagau,  Yousung Jung,  A. Klamt,  Jing Kong,  D. S. Lambrecht,  
 Xiangyuan Li,  WanZhen Liang,  N. J. Mayhall,  C. W. McCurdy,  J. B. Neaton,  
 T. Neudecker,  C. Ochsenfeld,  J. A. Parkhill,  R. Peverati,  
 V. A. Rassolov,  Haisheng Ren,  Yihan Shao,  L. V. Slipchenko,  
 R. P. Steele,  J. E. Subotnik,  A. J. W. Thom,  A. Tkatchenko,  
 D. G. Truhlar,  T. Van Voorhis,  Fan Wang,  T. A. Wesolowski,  K. B. Whaley,  
 H. L. Woodcock III,  P. M. Zimmerman,  S. Faraji,  P. M. W. Gill,  
 M. Head-Gordon,  J. M. Herbert,  A. I. Krylov

 Contributors to earlier versions of Q-Chem not listed above: 
 R. D. Adamson,  B. Austin,  R. Baer,  J. Baker,  G. J. O. Beran,  
 K. Brandhorst,  S. T. Brown,  E. F. C. Byrd,  Arup K. Chakraborty,  
 G. K. L. Chan,  Chun-Min Chang,  Yunqing Chen,  C.-L. Cheng,  
 Siu Hung Chien,  D. M. Chipman,  D. L. Crittenden,  H. Dachsel,  
 R. J. Doerksen,  A. D. Dutoi,  R. G. Edgar,  J. Fosso-Tande,  
 L. Fusti-Molnar,  D. Ghosh,  A. Ghysels,  A. Golubeva-Zadorozhnaya,  
 J. Gonthier,  M. S. Gordon,  S. R. Gwaltney,  G. Hawkins,  J. E. Herr,  
 A. Heyden,  S. Hirata,  E. G. Hohenstein,  G. Kedziora,  F. J. Keil,  
 C. Kelley,  Jihan Kim,  R. A. King,  R. Z. Khaliullin,  P. P. Korambath,  
 W. Kurlancheek,  A. Laurent,  A. M. Lee,  M. S. Lee,  S. V. Levchenko,  
 Ching Yeh Lin,  D. Liotard,  E. Livshits,  R. C. Lochan,  I. Lotan,  
 L. A. Martinez-Martinez,  P. E. Maslen,  N. Nair,  D. P. O'Neill,  
 D. Neuhauser,  E. Neuscamman,  C. M. Oana,  R. Olivares-Amaya,  R. Olson,  
 T. M. Perrine,  B. Peters,  P. A. Pieniazek,  A. Prociuk,  Y. M. Rhee,  
 J. Ritchie,  M. A. Rohrdanz,  E. Rosta,  N. J. Russ,  H. F. Schaefer III,  
 M. W. Schmidt,  N. E. Schultz,  S. Sharma,  N. Shenvi,  C. D. Sherrill,  
 A. C. Simmonett,  A. Sodt,  T. Stein,  D. Stuck,  K. S. Thanthiriwatte,  
 V. Vanovschi,  L. Vogt,  Tao Wang,  A. Warshel,  M. A. Watson,  
 C. F. Williams,  Q. Wu,  X. Xu,  Jun Yang,  W. Zhang,  Yan Zhao

   Please cite Q-Chem as follows:
  "Software for the frontiers of quantum chemistry:
   An overview of developments in the Q-Chem 5 package"
   J. Chem. Phys. 155, 084801 (2021)
   https://doi.org/10.1063/5.0055522 (open access)

 Q-Chem 6.2.2 for Intel X86 EM64T Linux

 Parts of Q-Chem use Armadillo 9.900.5 (Nocturnal Misbehaviour).
 http://arma.sourceforge.net/

 Q-Chem begins on Tue Dec 17 21:33:43 2024  

 Host: compute-0-9.local
0

     Scratch files written to /scratch/keith/A0D2_1//
 Processing $rem in /home/keith/software/qchem/qchem_622/config/preferences:
 Processing $rem in /home/keith/.qchemrc:

 Checking the input file for inconsistencies... 	...done.

--------------------------------------------------------------
User input:
--------------------------------------------------------------
$molecule
0 1
O -0.18706 0.40791 0.83530
H -0.86906 0.61171 0.22130
H -0.17446 1.10121 1.48230
O 0.28094 -0.39879 -2.79170
H 0.54444 -1.29509 -2.56270
H -0.58696 -0.30859 -2.44470
O 2.35744 -0.84749 -0.57170
H 1.53534 -0.53649 -0.93970
H 2.99839 -0.59069 -1.26770
O -0.77116 -2.54959 0.49930
H -0.81736 -3.41799 1.01530
H -0.49706 -1.88419 1.14930
O 0.80004 2.70721 2.54230
H 0.51504 3.62041 2.35430
H 1.28944 2.62501 3.38430
O -2.50736 1.34161 -1.33470
H -2.63616 2.19761 -0.90370
H -3.42376 0.95531 -1.34170
O 3.25820 1.35971 1.56130
H 2.38414 1.71911 1.85630
H 3.02379 0.62561 0.95730
O -3.11516 -2.10139 -0.79370
H -2.86666 -2.17949 -1.72570
H -2.25886 -1.96099 -0.38370
$end

$rem
method                    b3lyp 
basis                     cc-pv5z 
mem_total                 48000
mem_static                8000
thresh                    12
scf_convergence           8
xc_grid                   000075000302
max_scf_cycles            2000
symmetry                  false
sym_ignore                true
print_orbitals true
$end
gui                       2
molden_format true
--------------------------------------------------------------
 ----------------------------------------------------------------
             Standard Nuclear Orientation (Angstroms)
    I     Atom           X                Y                Z
 ----------------------------------------------------------------
    1      O      -0.1870600000     0.4079100000     0.8353000000
    2      H      -0.8690600000     0.6117100000     0.2213000000
    3      H      -0.1744600000     1.1012100000     1.4823000000
    4      O       0.2809400000    -0.3987900000    -2.7917000000
    5      H       0.5444400000    -1.2950900000    -2.5627000000
    6      H      -0.5869600000    -0.3085900000    -2.4447000000
    7      O       2.3574400000    -0.8474900000    -0.5717000000
    8      H       1.5353400000    -0.5364900000    -0.9397000000
    9      H       2.9983900000    -0.5906900000    -1.2677000000
   10      O      -0.7711600000    -2.5495900000     0.4993000000
   11      H      -0.8173600000    -3.4179900000     1.0153000000
   12      H      -0.4970600000    -1.8841900000     1.1493000000
   13      O       0.8000400000     2.7072100000     2.5423000000
   14      H       0.5150400000     3.6204100000     2.3543000000
   15      H       1.2894400000     2.6250100000     3.3843000000
   16      O      -2.5073600000     1.3416100000    -1.3347000000
   17      H      -2.6361600000     2.1976100000    -0.9037000000
   18      H      -3.4237600000     0.9553100000    -1.3417000000
   19      O       3.2582000000     1.3597100000     1.5613000000
   20      H       2.3841400000     1.7191100000     1.8563000000
   21      H       3.0237900000     0.6256100000     0.9573000000
   22      O      -3.1151600000    -2.1013900000    -0.7937000000
   23      H      -2.8666600000    -2.1794900000    -1.7257000000
   24      H      -2.2588600000    -1.9609900000    -0.3837000000
 ----------------------------------------------------------------
 Nuclear Repulsion Energy =         432.61100036 hartrees
 There are       40 alpha and       40 beta electrons
 Requested basis set is cc-pV5Z
 There are 408 shells and 1608 basis functions

 Total QAlloc Memory Limit  48000 MB
 Mega-Array Size      7821 MB
 MEM_STATIC part      8000 MB

 A cutoff of  1.0D-12 yielded  46592 shell pairs
 There are    592500 function pairs (    970599 Cartesian)
 Smallest overlap matrix eigenvalue = 2.38E-05

 Scale SEOQF with 1.000000e-01/1.000000e-01/1.000000e-01

 Standard Electronic Orientation quadrupole field applied
 Nucleus-field energy     =     0.0000000065 hartrees
 Guess from superposition of atomic densities
 Warning:  Energy on first SCF cycle will be non-variational
 SAD guess density has 80.000000 electrons

 -----------------------------------------------------------------------
  General SCF calculation program by
  Eric Jon Sundstrom, Paul Horn, Yuezhi Mao, Dmitri Zuev, Alec White,
  David Stuck, Shaama M.S., Shane Yost, Joonho Lee, David Small,
  Daniel Levine, Susi Lehtola, Hugh Burton, Evgeny Epifanovsky,
  Bang C. Huynh
 -----------------------------------------------------------------------
 Exchange:     0.2000 Hartree-Fock + 0.0800 Slater + 0.7200 B88
 Correlation:  0.1900 VWN1RPA + 0.8100 LYP
 Using Euler-Maclaurin-Lebedev (75,302) quadrature formula
 A restricted SCF calculation will be
 performed using DIIS
 SCF converges when DIIS error is below 1.0e-08
 ---------------------------------------
  Cycle       Energy         DIIS error
 ---------------------------------------
    1    -611.4677155067      5.76e-03  
    2    -611.3015982757      1.51e-03  
    3    -610.7169639258      2.22e-03  
    4    -611.8181898025      4.92e-05  
    5    -611.8183812391      4.13e-05  
    6    -611.8187111507      1.04e-05  
    7    -611.8187330060      1.24e-06  
    8    -611.8187331787      9.26e-07  
    9    -611.8187333582      8.71e-08  
   10    -611.8187333597      2.37e-08  
   11    -611.8187333598      1.37e-08  
   12    -611.8187333598      1.37e-09  Convergence criterion met
 ---------------------------------------
 SCF time:   CPU 269145.29s  wall 8532.00s 
 SCF   energy =  -611.81873336
 Total energy =  -611.81873336

 --------------------------------------------------------------

                    Orbital Energies (a.u.)
 --------------------------------------------------------------

 Alpha MOs
 -- Occupied --
-19.1737 -19.1609 -19.1429 -19.1357 -19.1234 -19.1197 -19.1073 -19.0880
 -1.0508  -1.0362  -1.0292  -1.0210  -1.0161  -1.0041  -0.9940  -0.9634
 -0.5888  -0.5516  -0.5489  -0.5463  -0.5332  -0.5159  -0.5122  -0.4877
 -0.4315  -0.4266  -0.4171  -0.4035  -0.3956  -0.3912  -0.3753  -0.3680
 -0.3482  -0.3466  -0.3305  -0.3280  -0.3222  -0.3084  -0.3000  -0.2786
 -- Virtual --
 -0.0404  -0.0236  -0.0067   0.0130   0.0241   0.0365   0.0517   0.0584
  0.0699   0.0874   0.0939   0.1034   0.1193   0.1349   0.1422   0.1583
  0.1622   0.1777   0.1825   0.1905   0.2000   0.2075   0.2108   0.2143
  0.2257   0.2321   0.2328   0.2370   0.2453   0.2500   0.2529   0.2590
  0.2613   0.2650   0.2749   0.2863   0.2876   0.2882   0.2943   0.2979
  0.3053   0.3153   0.3187   0.3217   0.3224   0.3318   0.3386   0.3472
  0.3500   0.3578   0.3726   0.3818   0.3827   0.3919   0.4069   0.4127
  0.4304   0.4306   0.4534   0.4562   0.4654   0.4674   0.4853   0.4917
  0.4957   0.5038   0.5094   0.5270   0.5360   0.5419   0.5590   0.5673
  0.5725   0.5780   0.5814   0.5894   0.6050   0.6187   0.6228   0.6338
  0.6405   0.6432   0.6531   0.6607   0.6634   0.6670   0.6805   0.6819
  0.6837   0.6994   0.7037   0.7100   0.7224   0.7331   0.7412   0.7497
  0.7636   0.7678   0.7725   0.7749   0.7813   0.7887   0.7963   0.7997
  0.8062   0.8105   0.8143   0.8312   0.8366   0.8411   0.8478   0.8590
  0.8663   0.8676   0.8754   0.8802   0.8920   0.9146   0.9176   0.9256
  0.9305   0.9395   0.9603   0.9745   0.9786   0.9900   0.9987   1.0050
  1.0088   1.0174   1.0297   1.0376   1.0494   1.0547   1.0639   1.0703
  1.0778   1.0820   1.0927   1.1004   1.1022   1.1180   1.1240   1.1309
  1.1389   1.1539   1.1550   1.1670   1.1700   1.1842   1.1952   1.1968
  1.2044   1.2095   1.2126   1.2309   1.2432   1.2460   1.2631   1.2692
  1.2717   1.2890   1.2957   1.3007   1.3094   1.3175   1.3262   1.3371
  1.3516   1.3530   1.3671   1.3784   1.3853   1.3943   1.4078   1.4113
  1.4165   1.4373   1.4479   1.4496   1.4624   1.4698   1.4826   1.4935
  1.5006   1.5065   1.5215   1.5268   1.5346   1.5399   1.5472   1.5528
  1.5624   1.5779   1.5922   1.5942   1.6056   1.6104   1.6140   1.6290
  1.6340   1.6372   1.6389   1.6514   1.6584   1.6655   1.6728   1.6761
  1.6829   1.6884   1.6935   1.7031   1.7081   1.7237   1.7295   1.7323
  1.7361   1.7384   1.7416   1.7505   1.7564   1.7609   1.7629   1.7682
  1.7863   1.7898   1.7924   1.7989   1.8060   1.8113   1.8140   1.8235
  1.8304   1.8412   1.8417   1.8491   1.8570   1.8671   1.8698   1.8738
  1.8802   1.8885   1.9061   1.9085   1.9202   1.9265   1.9392   1.9404
  1.9472   1.9560   1.9610   1.9651   1.9724   1.9810   1.9865   1.9895
  1.9955   2.0026   2.0113   2.0246   2.0299   2.0329   2.0432   2.0558
  2.0608   2.0643   2.0705   2.0834   2.0935   2.1004   2.1178   2.1230
  2.1275   2.1346   2.1531   2.1610   2.1765   2.1882   2.1892   2.1977
  2.2000   2.2148   2.2234   2.2334   2.2400   2.2516   2.2655   2.2690
  2.2829   2.2952   2.3027   2.3122   2.3210   2.3422   2.3517   2.3538
  2.3614   2.3726   2.3891   2.3943   2.4066   2.4086   2.4221   2.4270
  2.4495   2.4577   2.4700   2.4843   2.4904   2.4986   2.5054   2.5210
  2.5324   2.5436   2.5541   2.5615   2.5713   2.5766   2.5920   2.6063
  2.6281   2.6312   2.6401   2.6561   2.6584   2.6671   2.6730   2.6761
  2.6826   2.6971   2.7114   2.7203   2.7226   2.7292   2.7442   2.7509
  2.7624   2.7650   2.7854   2.7909   2.8011   2.8051   2.8099   2.8182
  2.8338   2.8416   2.8445   2.8711   2.8768   2.8922   2.8954   2.9005
  2.9085   2.9229   2.9252   2.9322   2.9526   2.9578   2.9623   2.9773
  2.9903   2.9986   3.0067   3.0180   3.0271   3.0335   3.0386   3.0446
  3.0545   3.0623   3.0718   3.0792   3.0951   3.1194   3.1219   3.1559
  3.1695   3.1782   3.1872   3.2128   3.2181   3.2336   3.2355   3.2573
  3.2732   3.2736   3.2949   3.2994   3.3052   3.3117   3.3210   3.3270
  3.3338   3.3424   3.3454   3.3552   3.3655   3.3832   3.3896   3.4142
  3.4191   3.4213   3.4345   3.4384   3.4417   3.4581   3.4624   3.4826
  3.4851   3.4947   3.4980   3.5016   3.5110   3.5216   3.5357   3.5397
  3.5640   3.5774   3.5980   3.6154   3.6206   3.6229   3.6405   3.6460
  3.6611   3.6650   3.6660   3.6743   3.6927   3.7022   3.7128   3.7310
  3.7410   3.7451   3.7501   3.7543   3.7625   3.7691   3.7762   3.7912
  3.8020   3.8160   3.8205   3.8331   3.8369   3.8442   3.8563   3.8647
  3.8807   3.8840   3.9043   3.9148   3.9209   3.9291   3.9355   3.9683
  3.9749   3.9756   3.9793   3.9963   4.0092   4.0213   4.0406   4.0499
  4.0563   4.0712   4.1022   4.1178   4.1331   4.1476   4.1632   4.1790
  4.1951   4.2048   4.2297   4.2473   4.2480   4.2616   4.2768   4.2981
  4.3033   4.3094   4.3358   4.3504   4.3540   4.3630   4.3869   4.3903
  4.3985   4.4067   4.4205   4.4263   4.4401   4.4452   4.4526   4.4566
  4.4610   4.4695   4.4854   4.4882   4.5002   4.5028   4.5081   4.5137
  4.5306   4.5319   4.5405   4.5446   4.5554   4.5597   4.5626   4.5763
  4.5791   4.5852   4.5920   4.5966   4.6062   4.6088   4.6120   4.6229
  4.6334   4.6386   4.6448   4.6517   4.6545   4.6640   4.6692   4.6710
  4.6804   4.6832   4.6896   4.6975   4.7109   4.7140   4.7212   4.7380
  4.7462   4.7487   4.7549   4.7607   4.7668   4.7711   4.7798   4.7948
  4.8009   4.8057   4.8156   4.8250   4.8266   4.8341   4.8584   4.8673
  4.8725   4.8759   4.8801   4.8905   4.8997   4.9152   4.9197   4.9269
  4.9333   4.9439   4.9521   4.9595   4.9642   4.9679   4.9772   4.9929
  5.0064   5.0115   5.0185   5.0287   5.0429   5.0484   5.0580   5.0687
  5.0825   5.0905   5.1084   5.1206   5.1292   5.1376   5.1484   5.1513
  5.1675   5.1803   5.1868   5.2142   5.2192   5.2252   5.2328   5.2464
  5.2515   5.2538   5.2737   5.3101   5.3201   5.3225   5.3315   5.3365
  5.3456   5.3564   5.3620   5.3740   5.3834   5.3958   5.4260   5.4278
  5.4503   5.4662   5.4802   5.4964   5.5115   5.5257   5.5329   5.5467
  5.5575   5.5721   5.5811   5.5882   5.6150   5.6360   5.6525   5.6824
  5.7043   5.7349   5.7477   5.7500   5.7579   5.7652   5.7776   5.8068
  5.8140   5.8420   5.8731   5.8814   5.8974   5.9267   5.9437   5.9523
  5.9564   5.9871   6.0083   6.0158   6.0265   6.0761   6.0819   6.1058
  6.1226   6.1416   6.1521   6.1544   6.1684   6.2055   6.2189   6.2218
  6.2320   6.2515   6.2678   6.2749   6.2942   6.3073   6.3117   6.3201
  6.3412   6.3444   6.3619   6.3651   6.3680   6.3855   6.3982   6.4109
  6.4239   6.4340   6.4393   6.4415   6.4640   6.4981   6.5164   6.5319
  6.5378   6.5620   6.5863   6.6184   6.6243   6.6254   6.6328   6.6470
  6.6512   6.6532   6.7004   6.7067   6.7096   6.7145   6.7204   6.7295
  6.7343   6.7382   6.7418   6.7522   6.7692   6.7858   6.7905   6.7998
  6.8090   6.8158   6.8229   6.8361   6.8407   6.8502   6.8577   6.8625
  6.8687   6.8778   6.8853   6.8892   6.9010   6.9120   6.9201   6.9299
  6.9515   6.9532   6.9792   6.9869   7.0054   7.0139   7.0214   7.0243
  7.0420   7.0467   7.0581   7.0651   7.0925   7.0951   7.1115   7.1189
  7.1242   7.1335   7.1598   7.1771   7.1950   7.2133   7.2158   7.2235
  7.2500   7.2542   7.2789   7.2995   7.3019   7.3089   7.3172   7.3285
  7.3393   7.3427   7.3582   7.3714   7.3892   7.4082   7.4206   7.4264
  7.4396   7.4586   7.4617   7.4750   7.4868   7.4888   7.5200   7.5248
  7.5703   7.5781   7.5879   7.5986   7.6150   7.6175   7.6425   7.6543
  7.6587   7.6833   7.7020   7.7088   7.7189   7.7386   7.7468   7.7521
  7.7689   7.7873   7.8003   7.8132   7.8384   7.8440   7.8539   7.8713
  7.8736   7.8940   7.9040   7.9173   7.9544   7.9667   7.9723   7.9888
  8.0055   8.0511   8.0571   8.0937   8.0955   8.1412   8.1868   8.2081
  8.2461   8.2853   8.3380   8.3629   8.3998   8.4275   8.4533   8.4743
  8.4865   8.4996   8.5653   8.6613   8.6946   8.7915   8.8398   8.8616
  8.8857   8.9282   8.9599   8.9889   9.0152   9.0357   9.0680   9.0917
  9.1112   9.1211   9.1422   9.1546   9.1640   9.1810   9.1956   9.2157
  9.2271   9.2339   9.2507   9.2887   9.2949   9.3195   9.3468   9.3602
  9.5848   9.6015   9.6219   9.6638   9.6899   9.7090   9.7195   9.7276
  9.7320   9.7422   9.7666   9.7760   9.7869   9.7922   9.8007   9.8271
  9.8459   9.8637   9.8744   9.8889   9.9065   9.9344  10.0012  10.0765
 11.6652  11.6665  11.6871  11.7101  11.7253  11.7485  11.7506  11.7629
 11.7742  11.7785  11.7847  11.7950  11.8030  11.8059  11.8107  11.8177
 11.8223  11.8309  11.8362  11.8429  11.8440  11.8580  11.8668  11.8875
 11.8949  11.9126  11.9234  11.9352  11.9379  11.9565  11.9580  11.9704
 11.9833  12.0130  12.0134  12.0225  12.0329  12.0441  12.0508  12.0595
 12.0812  12.0855  12.0943  12.1078  12.1144  12.1177  12.1197  12.1391
 12.1457  12.1499  12.1520  12.1612  12.1658  12.1712  12.1785  12.1801
 12.1839  12.1844  12.1903  12.1932  12.1969  12.1990  12.2002  12.2034
 12.2136  12.2172  12.2194  12.2205  12.2253  12.2272  12.2300  12.2433
 12.2452  12.2526  12.2644  12.2669  12.2733  12.2804  12.2831  12.2953
 12.2986  12.3070  12.3155  12.3162  12.3230  12.3289  12.3316  12.3383
 12.3426  12.3507  12.3566  12.3650  12.3724  12.3830  12.3875  12.3902
 12.4144  12.4221  12.4302  12.4324  12.4405  12.4442  12.4496  12.4544
 12.4637  12.4684  12.4692  12.4838  12.4877  12.5120  12.5382  12.5614
 12.5649  12.5695  12.5793  12.5830  12.6034  12.6196  12.6221  12.6362
 12.6416  12.6525  12.6538  12.6610  12.6633  12.6667  12.6759  12.6869
 12.7006  12.7076  12.7113  12.7275  12.7368  12.7458  12.7487  12.7654
 12.7745  12.7872  12.7892  12.7957  12.7959  12.8240  12.8249  12.8426
 12.8547  12.8716  12.8751  12.8905  12.9068  12.9105  12.9175  12.9234
 12.9262  12.9445  12.9579  12.9680  12.9710  12.9725  12.9819  13.0061
 13.0242  13.0529  13.0588  13.0685  13.0748  13.1076  13.1615  13.1941
 13.2036  13.2310  13.2369  13.2454  13.2554  13.2593  13.2748  13.2766
 13.2812  13.2854  13.3058  13.3140  13.3169  13.3211  13.3274  13.3345
 13.3487  13.3535  13.3564  13.3638  13.3774  13.3797  13.3938  13.4021
 13.4134  13.4200  13.4233  13.4302  13.4348  13.4430  13.4454  13.4500
 13.4561  13.4596  13.4633  13.4694  13.4732  13.4798  13.4869  13.4889
 13.4964  13.5079  13.5108  13.5172  13.5232  13.5278  13.5350  13.5371
 13.5445  13.5474  13.5528  13.5560  13.5626  13.5652  13.5695  13.5727
 13.5879  13.6017  13.6055  13.6101  13.6178  13.6208  13.6275  13.6286
 13.6446  13.6567  13.6652  13.6763  13.6808  13.6857  13.6925  13.6988
 13.7088  13.7156  13.7378  13.7469  13.7600  13.7664  13.7794  13.8128
 13.8270  13.8411  13.8500  13.8586  13.8643  13.8700  13.8816  13.9031
 13.9224  13.9333  13.9351  13.9373  13.9438  13.9452  13.9614  13.9695
 13.9710  13.9985  14.0054  14.0125  14.0217  14.0443  14.0486  14.0652
 14.0866  14.0929  14.1010  14.1021  14.1102  14.1331  14.1919  14.1979
 14.2027  14.2058  14.2340  14.2456  14.2518  14.2551  14.2708  14.2797
 14.2978  14.3171  14.3668  14.3764  14.4096  14.4396  14.4602  14.4668
 14.4909  14.5047  14.5385  14.5695  14.5792  14.5905  14.5911  14.6826
 14.7253  14.7567  14.7684  14.7866  14.8010  14.8093  14.8397  14.9773
 15.0829  15.1517  15.1822  15.2118  15.2565  15.3080  15.3107  15.3305
 15.3474  15.3608  15.3928  15.4335  15.4341  15.5186  15.5327  15.5721
 15.6160  15.6455  15.6726  15.6777  15.6854  15.6969  15.7057  15.7131
 15.7336  15.7536  15.8090  15.8109  15.8174  15.8278  15.8300  15.8456
 15.8510  15.8527  15.8626  15.8757  15.8815  15.9000  15.9097  15.9407
 15.9605  15.9833  16.0043  16.0111  16.0252  16.0296  16.0391  16.0469
 16.0574  16.0611  16.0699  16.0795  16.0855  16.0943  16.1080  16.1162
 16.1318  16.1343  16.1406  16.1470  16.1552  16.1685  16.1734  16.1833
 16.1931  16.1972  16.2059  16.2137  16.2258  16.2274  16.2308  16.2382
 16.2452  16.2484  16.2609  16.2643  16.2725  16.2918  16.2987  16.3171
 16.3350  16.3437  16.3629  16.3726  16.3814  16.3985  16.4237  16.4384
 16.4632  16.4686  16.4701  16.4931  16.5494  16.5578  16.5693  16.5824
 16.6475  16.6575  16.6740  16.7340  16.7613  16.8320  16.8711  16.8839
 16.9296  16.9359  16.9814  16.9857  17.0038  17.0225  17.0426  17.1021
 17.1097  17.1261  17.1538  17.1601  17.1735  17.1835  17.1844  17.2002
 17.2024  17.2307  17.2544  17.2618  17.2751  17.2911  17.3036  17.3126
 17.3165  17.3534  17.3584  17.3727  17.3975  17.4013  17.4252  17.4429
 17.4645  17.4791  17.4947  17.5006  17.5623  17.5867  17.5912  17.6056
 17.6101  17.6146  17.6322  17.6390  17.6731  17.6941  17.7337  17.7452
 17.7507  17.7744  17.8091  17.8146  17.8638  17.8841  17.8925  17.8958
 17.9107  17.9732  17.9957  18.0529  18.0745  18.0882  18.1215  18.1260
 18.1358  18.1417  18.1559  18.1915  18.1966  18.1998  18.2081  18.2267
 18.2425  18.2457  18.2551  18.2883  18.3035  18.3256  18.3438  18.3519
 18.3628  18.3687  18.3875  18.4086  18.4134  18.4194  18.4222  18.4316
 18.4392  18.4474  18.4527  18.4621  18.4724  18.4735  18.4784  18.4820
 18.4947  18.5261  18.5672  18.5990  18.6618  18.6808  18.6980  18.7199
 18.7854  18.7966  18.8077  18.8109  18.8323  18.8646  18.8726  18.8819
 18.8865  18.9079  18.9168  18.9431  18.9649  19.0087  19.0583  19.0620
 19.1087  19.1310  19.1558  19.1793  19.1988  19.2492  19.2542  19.2710
 19.2718  19.2763  19.3042  19.3201  19.3297  19.3302  19.3465  19.3662
 19.3924  19.3962  19.4175  19.4524  19.4553  19.4653  19.4762  19.4795
 19.4835  19.4950  19.5145  19.5278  19.5282  19.5409  19.5493  19.5808
 19.5847  19.5890  19.6113  19.6267  19.6344  19.6893  19.7053  19.7128
 19.7424  19.7881  19.8096  19.8462  19.9087  19.9311  19.9342  20.0253
 20.5246  20.5587  20.5870  20.6712  20.6911  20.6929  20.7325  20.7612
 20.7830  20.7883  20.8168  20.9043  20.9127  20.9191  21.0520  21.1722
 21.8896  21.9030  21.9080  21.9186  21.9320  21.9357  21.9423  21.9529
 21.9545  21.9615  21.9808  21.9905  22.0109  22.0803  22.0834  22.0993
 22.2088  22.2471  22.2569  22.2838  22.2926  22.3103  22.3331  22.3497
 22.4026  22.4871  22.4893  22.6896  22.6976  22.7294  22.7564  22.7721
 22.8812  22.9234  22.9397  22.9459  22.9793  22.9891  22.9959  23.0000
 23.0205  23.0759  23.1072  23.1159  23.1898  23.2002  23.3568  23.3766
 23.3965  23.4186  23.4355  23.4983  23.5572  23.6227  23.6401  23.7443
 24.1062  24.1871  24.3100  24.3557  24.3782  24.3937  24.4004  24.4852
 24.5116  24.5817  24.6051  24.6921  24.7311  24.7973  24.8410  24.9155
 24.9500  24.9933  25.0943  25.1873  25.2139  25.2275  25.2892  25.3287
 25.5943  25.6357  25.6484  25.7597  26.1007  26.1640  26.3918  26.6009
 63.8793  63.9733  64.0077  64.0824  64.3166  64.3400  64.4000  64.6202
 --------------------------------------------------------------


                        RESTRICTED (RHF) MOLECULAR ORBITAL COEFFICIENTS
                         1         2         3         4         5         6
 eigenvalues:        -19.174   -19.161   -19.143   -19.136   -19.123   -19.120
   1  O 1   s        0.00003  -0.00001   0.00004  -0.00003  -0.97868   0.00007
   2  O 1   s        0.00002  -0.00001   0.00002  -0.00002  -0.03121  -0.00001
   3  O 1   s        0.00003  -0.00002   0.00004  -0.00004  -0.08550  -0.00001
   4  O 1   s        0.00021   0.00001   0.00008   0.00022   0.01622   0.00008
   5  O 1   s       -0.00243   0.00048  -0.00184  -0.00049   0.02132  -0.00029
   6  O 1   s       -0.00410   0.00123  -0.00267  -0.00043   0.00639  -0.00012
   7  O 1   px      -0.00000   0.00000   0.00000   0.00000   0.00073   0.00000
   8  O 1   py      -0.00000  -0.00000   0.00000  -0.00000  -0.00088  -0.00000
   9  O 1   pz      -0.00000   0.00000  -0.00000   0.00000  -0.00004   0.00000
  10  O 1   px      -0.00000   0.00001  -0.00002  -0.00001   0.00041  -0.00001
  11  O 1   py       0.00005   0.00002   0.00001   0.00001  -0.00060   0.00000
  12  O 1   pz       0.00003   0.00002   0.00002  -0.00001  -0.00003  -0.00001
  13  O 1   px       0.00011  -0.00015   0.00020   0.00001  -0.00619   0.00001
  14  O 1   py      -0.00043   0.00001  -0.00026  -0.00005   0.00827  -0.00003
  15  O 1   pz      -0.00019  -0.00014  -0.00012  -0.00001   0.00020  -0.00001
  16  O 1   px       0.00022  -0.00089   0.00038   0.00020  -0.00145   0.00023
  17  O 1   py      -0.00149  -0.00013  -0.00047  -0.00033   0.00213  -0.00002
  18  O 1   pz      -0.00091  -0.00107  -0.00049   0.00002   0.00073   0.00023
  19  O 1   px       0.00020  -0.00019  -0.00012   0.00007  -0.00009  -0.00003
  20  O 1   py      -0.00053   0.00001  -0.00064   0.00035   0.00082  -0.00014
  21  O 1   pz      -0.00041  -0.00025  -0.00078   0.00037   0.00074  -0.00024
  22  O 1   d 1     -0.00000  -0.00000  -0.00000   0.00000   0.00008   0.00000
  23  O 1   d 2     -0.00000  -0.00000   0.00000  -0.00000  -0.00016   0.00000
  24  O 1   d 3     -0.00000  -0.00000   0.00000   0.00000  -0.00008  -0.00000
  25  O 1   d 4     -0.00000  -0.00000  -0.00000  -0.00000  -0.00022   0.00000
  26  O 1   d 5     -0.00000   0.00000   0.00000  -0.00000   0.00002  -0.00000
  27  O 1   d 1      0.00001   0.00000   0.00001  -0.00001  -0.00016  -0.00000
  28  O 1   d 2      0.00001   0.00001  -0.00001   0.00001   0.00027  -0.00000
  29  O 1   d 3      0.00000   0.00001  -0.00000  -0.00000   0.00011   0.00001
  30  O 1   d 4      0.00001   0.00000   0.00001   0.00000   0.00039  -0.00000
  31  O 1   d 5     -0.00000  -0.00001  -0.00000  -0.00000  -0.00004   0.00000
  32  O 1   d 1     -0.00002  -0.00006  -0.00002   0.00003  -0.00052   0.00003
  33  O 1   d 2     -0.00023  -0.00007  -0.00011  -0.00005   0.00215   0.00000
  34  O 1   d 3     -0.00005  -0.00001  -0.00005  -0.00002   0.00145  -0.00003
  35  O 1   d 4     -0.00013   0.00011  -0.00013  -0.00002   0.00287   0.00000
  36  O 1   d 5      0.00010   0.00008   0.00000   0.00003  -0.00007  -0.00001
  37  O 1   d 1      0.00001  -0.00009  -0.00006  -0.00002  -0.00001   0.00008
  38  O 1   d 2     -0.00043  -0.00020  -0.00030  -0.00011  -0.00008   0.00015
  39  O 1   d 3     -0.00009  -0.00001  -0.00012  -0.00019  -0.00011   0.00011
  40  O 1   d 4     -0.00014   0.00024  -0.00003  -0.00017  -0.00077  -0.00012
  41  O 1   d 5      0.00026   0.00020  -0.00001   0.00003  -0.00023  -0.00012
  42  O 1   f 1     -0.00000  -0.00000   0.00000  -0.00000   0.00001  -0.00000
  43  O 1   f 2      0.00000   0.00000   0.00000   0.00000  -0.00005   0.00000
  44  O 1   f 3      0.00000   0.00000  -0.00000   0.00000  -0.00009   0.00000
  45  O 1   f 4     -0.00000   0.00000  -0.00000   0.00000  -0.00001  -0.00000
  46  O 1   f 5     -0.00000   0.00000  -0.00000  -0.00000   0.00006   0.00000
  47  O 1   f 6     -0.00000   0.00000  -0.00000  -0.00000   0.00015  -0.00000
  48  O 1   f 7     -0.00000   0.00000   0.00000   0.00000   0.00004   0.00000
  49  O 1   f 1      0.00001   0.00000  -0.00001   0.00001  -0.00007   0.00000
  50  O 1   f 2     -0.00002   0.00000  -0.00001  -0.00000   0.00043  -0.00000
  51  O 1   f 3     -0.00002  -0.00000  -0.00001  -0.00001   0.00074  -0.00000
  52  O 1   f 4      0.00001  -0.00000   0.00000  -0.00000   0.00005   0.00000
  53  O 1   f 5      0.00001  -0.00003   0.00001   0.00000  -0.00051  -0.00001
  54  O 1   f 6      0.00004  -0.00003   0.00003   0.00001  -0.00129   0.00001
  55  O 1   f 7      0.00002  -0.00001   0.00000  -0.00000  -0.00028  -0.00001
  56  O 1   f 1      0.00005   0.00001   0.00004   0.00001  -0.00002  -0.00004
  57  O 1   f 2     -0.00004  -0.00002   0.00003   0.00001  -0.00026  -0.00002
  58  O 1   f 3     -0.00007  -0.00005  -0.00005  -0.00005  -0.00023  -0.00000
  59  O 1   f 4      0.00001   0.00002  -0.00007   0.00005  -0.00004  -0.00003
  60  O 1   f 5     -0.00003  -0.00008  -0.00001   0.00009   0.00016   0.00004
  61  O 1   f 6      0.00010  -0.00004   0.00003   0.00007   0.00050  -0.00001
  62  O 1   f 7     -0.00001  -0.00001   0.00004   0.00001   0.00017   0.00001
  63  O 1   g 1      0.00000  -0.00000   0.00000   0.00000  -0.00003  -0.00000
  64  O 1   g 2      0.00000   0.00000   0.00000  -0.00000  -0.00013  -0.00000
  65  O 1   g 3      0.00000   0.00000  -0.00000  -0.00000  -0.00004   0.00000
  66  O 1   g 4      0.00000   0.00000  -0.00000  -0.00000   0.00001  -0.00000
  67  O 1   g 5      0.00000  -0.00000   0.00000  -0.00000  -0.00011  -0.00000
  68  O 1   g 6     -0.00000   0.00000  -0.00000   0.00000  -0.00000   0.00000
  69  O 1   g 7      0.00000  -0.00000   0.00000   0.00000  -0.00002   0.00000
  70  O 1   g 8      0.00000  -0.00000  -0.00000   0.00000   0.00004   0.00000
  71  O 1   g 9     -0.00000  -0.00000  -0.00000   0.00000   0.00004  -0.00000
  72  O 1   g 1     -0.00000  -0.00000  -0.00001  -0.00000   0.00001   0.00000
  73  O 1   g 2      0.00001  -0.00001  -0.00001   0.00001   0.00003   0.00000
  74  O 1   g 3     -0.00001  -0.00002  -0.00000   0.00002   0.00006   0.00001
  75  O 1   g 4     -0.00000  -0.00001  -0.00001   0.00001   0.00004   0.00000
  76  O 1   g 5      0.00001  -0.00001  -0.00001   0.00001  -0.00002   0.00000
  77  O 1   g 6     -0.00000   0.00000   0.00001  -0.00001   0.00008   0.00000
  78  O 1   g 7      0.00001   0.00003   0.00000  -0.00001   0.00003  -0.00000
  79  O 1   g 8      0.00001   0.00002  -0.00000  -0.00001  -0.00000  -0.00000
  80  O 1   g 9     -0.00000   0.00001  -0.00000  -0.00001   0.00000   0.00000
  81  O 1   h 1      0.00000   0.00000  -0.00000   0.00000   0.00002   0.00000
  82  O 1   h 2      0.00000   0.00000   0.00000  -0.00000   0.00002  -0.00000
  83  O 1   h 3      0.00000   0.00000   0.00000  -0.00000  -0.00002  -0.00000
  84  O 1   h 4     -0.00000   0.00000  -0.00000  -0.00000   0.00002   0.00000
  85  O 1   h 5      0.00000  -0.00000  -0.00000   0.00000  -0.00003   0.00000
  86  O 1   h 6      0.00000   0.00000  -0.00000  -0.00000  -0.00000  -0.00000
  87  O 1   h 7     -0.00000   0.00000  -0.00000   0.00000   0.00003   0.00000
  88  O 1   h 8     -0.00000   0.00000  -0.00000   0.00000  -0.00007   0.00000
  89  O 1   h 9      0.00000  -0.00000  -0.00000  -0.00000  -0.00005  -0.00000
  90  O 1   h10     -0.00000  -0.00000   0.00000  -0.00000   0.00001   0.00000
  91  O 1   h11     -0.00000  -0.00000   0.00000   0.00000  -0.00000  -0.00000
  92  H 1   s        0.00000   0.00001   0.00000  -0.00001   0.00026  -0.00000
  93  H 1   s       -0.00008   0.00000  -0.00010   0.00007   0.00159   0.00002
  94  H 1   s        0.00070  -0.00136   0.00070   0.00034  -0.01226   0.00039
  95  H 1   s        0.00075  -0.00103   0.00029   0.00037  -0.00283  -0.00001
  96  H 1   s       -0.00009  -0.00030   0.00001  -0.00001  -0.00004   0.00002
  97  H 1   px       0.00000   0.00002  -0.00000  -0.00000   0.00017  -0.00000
  98  H 1   py       0.00000  -0.00000  -0.00000   0.00000  -0.00005   0.00000
  99  H 1   pz       0.00000   0.00001  -0.00000   0.00000   0.00015   0.00000
 100  H 1   px      -0.00002  -0.00007  -0.00001   0.00001  -0.00022   0.00002
 101  H 1   py      -0.00000   0.00000   0.00002  -0.00001   0.00005  -0.00001
 102  H 1   pz      -0.00001  -0.00005  -0.00002   0.00000  -0.00020  -0.00001
 103  H 1   px       0.00028  -0.00020   0.00023   0.00016  -0.00717   0.00004
 104  H 1   py      -0.00004   0.00017  -0.00021  -0.00007   0.00236   0.00004
 105  H 1   pz       0.00026  -0.00018   0.00028   0.00003  -0.00616   0.00010
 106  H 1   px       0.00025  -0.00073   0.00016   0.00008  -0.00248   0.00003
 107  H 1   py      -0.00015   0.00022  -0.00019  -0.00010   0.00069   0.00007
 108  H 1   pz       0.00019  -0.00063   0.00028  -0.00014  -0.00225   0.00016
 109  H 1   d 1      0.00000  -0.00001   0.00000  -0.00000  -0.00006  -0.00000
 110  H 1   d 2     -0.00000  -0.00000   0.00001   0.00001  -0.00003  -0.00000
 111  H 1   d 3     -0.00000  -0.00000  -0.00000   0.00001   0.00001   0.00000
 112  H 1   d 4     -0.00001   0.00002  -0.00001   0.00000   0.00012   0.00000
 113  H 1   d 5      0.00000   0.00001  -0.00000  -0.00000   0.00006   0.00000
 114  H 1   d 1     -0.00001   0.00006  -0.00002  -0.00001   0.00095   0.00000
 115  H 1   d 2      0.00001   0.00004  -0.00004  -0.00003   0.00073   0.00001
 116  H 1   d 3      0.00001  -0.00001   0.00002  -0.00004  -0.00026  -0.00001
 117  H 1   d 4      0.00006  -0.00013   0.00005   0.00001  -0.00233   0.00001
 118  H 1   d 5      0.00001  -0.00009   0.00002   0.00002  -0.00118   0.00001
 119  H 1   d 1     -0.00004   0.00003  -0.00010  -0.00004   0.00114   0.00005
 120  H 1   d 2     -0.00008   0.00003  -0.00014   0.00004   0.00108   0.00001
 121  H 1   d 3     -0.00000   0.00002   0.00003  -0.00003  -0.00043   0.00005
 122  H 1   d 4      0.00012   0.00006   0.00013  -0.00005  -0.00314   0.00002
 123  H 1   d 5      0.00007   0.00008  -0.00001   0.00001  -0.00163  -0.00000
 124  H 1   f 1     -0.00000  -0.00000  -0.00000  -0.00000   0.00011  -0.00000
 125  H 1   f 2      0.00000   0.00000  -0.00000  -0.00000   0.00015  -0.00000
 126  H 1   f 3      0.00000   0.00000  -0.00000   0.00000   0.00005   0.00000
 127  H 1   f 4     -0.00000   0.00000  -0.00000  -0.00000   0.00011  -0.00000
 128  H 1   f 5      0.00000   0.00000   0.00000  -0.00000  -0.00014  -0.00000
 129  H 1   f 6      0.00000   0.00000  -0.00000   0.00000  -0.00019   0.00000
 130  H 1   f 7     -0.00000  -0.00000   0.00000   0.00000  -0.00007   0.00000
 131  H 1   f 1     -0.00001   0.00003  -0.00000   0.00000   0.00050   0.00001
 132  H 1   f 2     -0.00002   0.00004  -0.00004   0.00001   0.00071   0.00001
 133  H 1   f 3     -0.00001   0.00001  -0.00002  -0.00000   0.00021  -0.00000
 134  H 1   f 4     -0.00002   0.00002  -0.00002  -0.00000   0.00051   0.00000
 135  H 1   f 5      0.00001  -0.00002   0.00002  -0.00001  -0.00073   0.00001
 136  H 1   f 6      0.00002  -0.00004   0.00001  -0.00001  -0.00097  -0.00000
 137  H 1   f 7      0.00000  -0.00001  -0.00001   0.00000  -0.00029   0.00000
 138  H 1   g 1     -0.00000   0.00000   0.00000   0.00000   0.00005   0.00000
 139  H 1   g 2     -0.00000   0.00001  -0.00000   0.00000   0.00010   0.00000
 140  H 1   g 3     -0.00000   0.00000  -0.00000   0.00000   0.00006   0.00000
 141  H 1   g 4      0.00000  -0.00000  -0.00000  -0.00000  -0.00001  -0.00000
 142  H 1   g 5     -0.00000   0.00000  -0.00000   0.00000   0.00007   0.00000
 143  H 1   g 6     -0.00000   0.00000  -0.00000  -0.00000   0.00002   0.00000
 144  H 1   g 7      0.00000  -0.00000   0.00000  -0.00000  -0.00009   0.00000
 145  H 1   g 8      0.00000  -0.00000  -0.00000   0.00000  -0.00006   0.00000
 146  H 1   g 9     -0.00000  -0.00000  -0.00000   0.00000  -0.00000   0.00000
 147  H 2   s       -0.00001  -0.00000   0.00000  -0.00000   0.00023  -0.00000
 148  H 2   s       -0.00015   0.00001  -0.00014   0.00002   0.00179  -0.00001
 149  H 2   s        0.00238   0.00053   0.00113   0.00057  -0.01305  -0.00019
 150  H 2   s        0.00273   0.00029   0.00257  -0.00028  -0.00547   0.00015
 151  H 2   s        0.00041   0.00011   0.00002  -0.00015   0.00011   0.00010
 152  H 2   px      -0.00000   0.00000  -0.00000   0.00000   0.00000   0.00000
 153  H 2   py      -0.00000   0.00000  -0.00000  -0.00000  -0.00017   0.00000
 154  H 2   pz       0.00000   0.00000  -0.00000   0.00000  -0.00015  -0.00000
 155  H 2   px       0.00000  -0.00001   0.00002  -0.00001  -0.00001  -0.00000
 156  H 2   py       0.00002  -0.00001   0.00004  -0.00000   0.00015  -0.00001
 157  H 2   pz       0.00002  -0.00002   0.00002  -0.00002   0.00012   0.00001
 158  H 2   px       0.00006   0.00010  -0.00004  -0.00001   0.00013  -0.00002
 159  H 2   py      -0.00071  -0.00014  -0.00052  -0.00015   0.00735   0.00002
 160  H 2   pz      -0.00070  -0.00002  -0.00033  -0.00013   0.00666  -0.00002
 161  H 2   px      -0.00013   0.00001   0.00002  -0.00002   0.00040   0.00005
 162  H 2   py      -0.00124  -0.00018  -0.00087  -0.00002   0.00330  -0.00003
 163  H 2   pz      -0.00123  -0.00014  -0.00063   0.00000   0.00302   0.00003
 164  H 2   d 1     -0.00000  -0.00000   0.00000  -0.00000  -0.00003  -0.00000
 165  H 2   d 2     -0.00001   0.00000  -0.00001  -0.00000   0.00015  -0.00000
 166  H 2   d 3     -0.00000   0.00000  -0.00000  -0.00000   0.00003  -0.00000
 167  H 2   d 4      0.00000   0.00000   0.00000   0.00000  -0.00001   0.00000
 168  H 2   d 5      0.00000  -0.00000   0.00001  -0.00000  -0.00008   0.00000
 169  H 2   d 1      0.00001  -0.00001  -0.00000   0.00002   0.00014   0.00002
 170  H 2   d 2      0.00015   0.00001   0.00006   0.00003  -0.00248   0.00000
 171  H 2   d 3      0.00003  -0.00002   0.00001   0.00002  -0.00047   0.00000
 172  H 2   d 4     -0.00002  -0.00002  -0.00001   0.00000   0.00003   0.00000
 173  H 2   d 5     -0.00006  -0.00002  -0.00006  -0.00000   0.00137  -0.00000
 174  H 2   d 1     -0.00013  -0.00006   0.00002   0.00001  -0.00027  -0.00002
 175  H 2   d 2      0.00025  -0.00002   0.00025   0.00000  -0.00348   0.00003
 176  H 2   d 3      0.00013  -0.00004  -0.00001  -0.00001  -0.00071  -0.00002
 177  H 2   d 4     -0.00002  -0.00004   0.00001   0.00000  -0.00016  -0.00001
 178  H 2   d 5     -0.00016  -0.00001  -0.00019  -0.00000   0.00197  -0.00001
 179  H 2   f 1      0.00000   0.00000   0.00000   0.00000  -0.00011   0.00000
 180  H 2   f 2      0.00000   0.00000   0.00000  -0.00000  -0.00001  -0.00000
 181  H 2   f 3     -0.00001  -0.00000  -0.00000  -0.00000   0.00018  -0.00000
 182  H 2   f 4      0.00000   0.00000   0.00000  -0.00000  -0.00009  -0.00000
 183  H 2   f 5      0.00000   0.00000   0.00000  -0.00000  -0.00000  -0.00000
 184  H 2   f 6      0.00001   0.00000   0.00000   0.00000  -0.00024  -0.00000
 185  H 2   f 7     -0.00000  -0.00000  -0.00000  -0.00000   0.00001   0.00000
 186  H 2   f 1      0.00002  -0.00000   0.00004  -0.00001  -0.00054  -0.00000
 187  H 2   f 2      0.00001   0.00002  -0.00000  -0.00001  -0.00000   0.00000
 188  H 2   f 3     -0.00006   0.00002  -0.00002  -0.00000   0.00092   0.00000
 189  H 2   f 4      0.00001   0.00001   0.00001  -0.00000  -0.00041   0.00001
 190  H 2   f 5     -0.00001   0.00000   0.00000   0.00001   0.00005   0.00001
 191  H 2   f 6      0.00006  -0.00001   0.00005  -0.00000  -0.00120   0.00001
 192  H 2   f 7     -0.00001  -0.00001   0.00000   0.00001   0.00006   0.00001
 193  H 2   g 1      0.00000   0.00000  -0.00000  -0.00000  -0.00001  -0.00000
 194  H 2   g 2     -0.00000   0.00000  -0.00000   0.00000   0.00012   0.00000
 195  H 2   g 3     -0.00000  -0.00000  -0.00000   0.00000  -0.00000  -0.00000
 196  H 2   g 4      0.00000  -0.00000   0.00000   0.00000  -0.00000  -0.00000
 197  H 2   g 5     -0.00000  -0.00000  -0.00000   0.00000   0.00008  -0.00000
 198  H 2   g 6      0.00000   0.00000   0.00000  -0.00000  -0.00000  -0.00000
 199  H 2   g 7     -0.00000   0.00000  -0.00000   0.00000   0.00013   0.00000
 200  H 2   g 8      0.00001   0.00000  -0.00000  -0.00000  -0.00001  -0.00000
 201  H 2   g 9      0.00000   0.00000   0.00000  -0.00000  -0.00004  -0.00000
 202  O 2   s       -0.00000   0.00001   0.00000   0.97853   0.00000   0.00005
 203  O 2   s       -0.00000   0.00001  -0.00000   0.03100   0.00002   0.00003
 204  O 2   s       -0.00000   0.00003  -0.00001   0.08523   0.00003   0.00005
 205  O 2   s        0.00001  -0.00005   0.00006  -0.01576  -0.00010  -0.00017
 206  O 2   s       -0.00006  -0.00056  -0.00034  -0.01737  -0.00006   0.00010
 207  O 2   s       -0.00007  -0.00047  -0.00063  -0.00376   0.00003   0.00041
 208  O 2   px       0.00000   0.00000   0.00000  -0.00064  -0.00000   0.00000
 209  O 2   py      -0.00000  -0.00000  -0.00000  -0.00083   0.00000  -0.00000
 210  O 2   pz      -0.00000  -0.00000  -0.00000   0.00064   0.00000   0.00001
 211  O 2   px      -0.00000  -0.00001  -0.00001  -0.00042   0.00001  -0.00001
 212  O 2   py       0.00000   0.00001   0.00000  -0.00043  -0.00001  -0.00001
 213  O 2   pz       0.00000   0.00001   0.00002   0.00032  -0.00000  -0.00004
 214  O 2   px       0.00003   0.00021   0.00007   0.00595  -0.00005  -0.00011
 215  O 2   py      -0.00002  -0.00002  -0.00001   0.00601   0.00009   0.00022
 216  O 2   pz      -0.00001  -0.00009  -0.00008  -0.00487  -0.00003   0.00009
 217  O 2   px       0.00006   0.00020   0.00033   0.00132  -0.00038  -0.00073
 218  O 2   py       0.00001   0.00004   0.00008   0.00067   0.00019   0.00038
 219  O 2   pz      -0.00000  -0.00009  -0.00032  -0.00085   0.00000  -0.00006
 220  O 2   px       0.00001  -0.00005   0.00006   0.00012  -0.00006  -0.00007
 221  O 2   py       0.00002   0.00009   0.00004   0.00011   0.00004  -0.00000
 222  O 2   pz      -0.00000  -0.00009  -0.00006  -0.00022  -0.00001   0.00004
 223  O 2   d 1     -0.00000  -0.00000  -0.00000  -0.00015   0.00000   0.00000
 224  O 2   d 2      0.00000   0.00000   0.00000  -0.00008  -0.00000  -0.00000
 225  O 2   d 3      0.00000  -0.00000  -0.00000  -0.00018  -0.00000  -0.00000
 226  O 2   d 4     -0.00000  -0.00000   0.00000  -0.00013   0.00000   0.00000
 227  O 2   d 5      0.00000   0.00000  -0.00000   0.00002   0.00000   0.00000
 228  O 2   d 1      0.00000   0.00001   0.00000   0.00023  -0.00000  -0.00000
 229  O 2   d 2     -0.00000  -0.00000  -0.00001   0.00015   0.00000   0.00000
 230  O 2   d 3     -0.00000   0.00000   0.00000   0.00031   0.00001  -0.00000
 231  O 2   d 4      0.00000   0.00001  -0.00001   0.00023  -0.00001  -0.00000
 232  O 2   d 5     -0.00000  -0.00000   0.00000  -0.00003  -0.00001  -0.00000
 233  O 2   d 1     -0.00000  -0.00001  -0.00003   0.00205   0.00002   0.00005
 234  O 2   d 2     -0.00000   0.00000   0.00003   0.00079   0.00001   0.00005
 235  O 2   d 3      0.00000   0.00002  -0.00002   0.00219  -0.00001   0.00005
 236  O 2   d 4      0.00000   0.00004   0.00006   0.00150   0.00001  -0.00002
 237  O 2   d 5     -0.00001  -0.00008  -0.00005  -0.00056   0.00005   0.00013
 238  O 2   d 1     -0.00000   0.00002  -0.00006  -0.00010   0.00001   0.00001
 239  O 2   d 2      0.00001   0.00003   0.00008  -0.00019   0.00004   0.00011
 240  O 2   d 3      0.00002   0.00001  -0.00003  -0.00037  -0.00004  -0.00019
 241  O 2   d 4      0.00000  -0.00001   0.00012  -0.00053  -0.00013  -0.00020
 242  O 2   d 5     -0.00002   0.00002  -0.00010  -0.00007   0.00012   0.00023
 243  O 2   f 1      0.00000  -0.00000  -0.00000   0.00008  -0.00000   0.00000
 244  O 2   f 2      0.00000   0.00000  -0.00000  -0.00005  -0.00000   0.00000
 245  O 2   f 3      0.00000  -0.00000   0.00000   0.00004  -0.00000   0.00000
 246  O 2   f 4      0.00000   0.00000  -0.00000  -0.00009   0.00000  -0.00001
 247  O 2   f 5      0.00000   0.00000  -0.00000   0.00001  -0.00000  -0.00001
 248  O 2   f 6      0.00000   0.00000   0.00000   0.00003  -0.00000  -0.00000
 249  O 2   f 7     -0.00000  -0.00000  -0.00000  -0.00014   0.00000   0.00000
 250  O 2   f 1     -0.00000  -0.00000   0.00000  -0.00063   0.00001  -0.00001
 251  O 2   f 2     -0.00000  -0.00000   0.00000   0.00037   0.00001  -0.00000
 252  O 2   f 3     -0.00000   0.00001  -0.00000  -0.00033  -0.00000  -0.00001
 253  O 2   f 4     -0.00000   0.00000   0.00000   0.00073   0.00000   0.00003
 254  O 2   f 5     -0.00000  -0.00000   0.00000  -0.00007   0.00001   0.00003
 255  O 2   f 6     -0.00000  -0.00001  -0.00001  -0.00027   0.00000   0.00002
 256  O 2   f 7      0.00000   0.00001   0.00000   0.00113   0.00000   0.00000
 257  O 2   f 1     -0.00000  -0.00000   0.00002   0.00022   0.00002  -0.00001
 258  O 2   f 2     -0.00000   0.00001  -0.00001  -0.00002  -0.00001   0.00001
 259  O 2   f 3      0.00000   0.00001   0.00003   0.00016   0.00000   0.00003
 260  O 2   f 4      0.00001   0.00000   0.00003  -0.00030  -0.00002  -0.00008
 261  O 2   f 5     -0.00001  -0.00001   0.00002  -0.00009   0.00001  -0.00003
 262  O 2   f 6      0.00000   0.00001  -0.00002   0.00012   0.00002   0.00006
 263  O 2   f 7      0.00000  -0.00001   0.00000  -0.00027  -0.00002  -0.00002
 264  O 2   g 1      0.00000  -0.00000   0.00000  -0.00004  -0.00000  -0.00000
 265  O 2   g 2      0.00000   0.00000  -0.00000  -0.00006  -0.00000   0.00000
 266  O 2   g 3      0.00000   0.00000   0.00000  -0.00002   0.00000   0.00000
 267  O 2   g 4      0.00000   0.00000  -0.00000  -0.00005  -0.00000  -0.00000
 268  O 2   g 5     -0.00000   0.00000  -0.00000  -0.00001   0.00000   0.00000
 269  O 2   g 6     -0.00000  -0.00000  -0.00000  -0.00006  -0.00000   0.00000
 270  O 2   g 7     -0.00000  -0.00000   0.00000  -0.00003  -0.00000   0.00000
 271  O 2   g 8      0.00000   0.00000   0.00000   0.00011   0.00000   0.00000
 272  O 2   g 9     -0.00000  -0.00000  -0.00000  -0.00009  -0.00000  -0.00000
 273  O 2   g 1     -0.00000   0.00001  -0.00000   0.00002  -0.00000   0.00001
 274  O 2   g 2     -0.00000  -0.00000   0.00000  -0.00004   0.00001  -0.00001
 275  O 2   g 3     -0.00000   0.00000   0.00000  -0.00003  -0.00000  -0.00001
 276  O 2   g 4     -0.00000   0.00000  -0.00000   0.00001   0.00000  -0.00000
 277  O 2   g 5     -0.00000   0.00000   0.00001  -0.00003  -0.00000  -0.00001
 278  O 2   g 6     -0.00000   0.00000  -0.00000  -0.00003   0.00001  -0.00001
 279  O 2   g 7      0.00000   0.00000  -0.00000   0.00004   0.00000   0.00000
 280  O 2   g 8     -0.00000  -0.00000   0.00001   0.00007  -0.00000  -0.00001
 281  O 2   g 9     -0.00000   0.00000  -0.00000  -0.00000   0.00000   0.00000
 282  O 2   h 1      0.00000  -0.00000   0.00000  -0.00003   0.00000  -0.00000
 283  O 2   h 2      0.00000   0.00000  -0.00000  -0.00001  -0.00000   0.00000
 284  O 2   h 3     -0.00000  -0.00000  -0.00000   0.00001  -0.00000  -0.00000
 285  O 2   h 4      0.00000  -0.00000   0.00000  -0.00004   0.00000  -0.00000
 286  O 2   h 5     -0.00000  -0.00000  -0.00000   0.00001  -0.00000  -0.00000
 287  O 2   h 6     -0.00000   0.00000   0.00000  -0.00005   0.00000   0.00000
 288  O 2   h 7     -0.00000   0.00000  -0.00000  -0.00002   0.00000   0.00000
 289  O 2   h 8     -0.00000  -0.00000   0.00000   0.00002   0.00000  -0.00000
 290  O 2   h 9     -0.00000   0.00000   0.00000  -0.00001  -0.00000  -0.00000
 291  O 2   h10     -0.00000   0.00000  -0.00000  -0.00006   0.00000  -0.00000
 292  O 2   h11      0.00000   0.00000   0.00000  -0.00001   0.00000   0.00000
 293  H 3   s       -0.00000   0.00000  -0.00000  -0.00021   0.00000   0.00001
 294  H 3   s        0.00001  -0.00002  -0.00000  -0.00151  -0.00006  -0.00015
 295  H 3   s       -0.00003   0.00006  -0.00009   0.01030   0.00041   0.00089
 296  H 3   s        0.00011   0.00018   0.00039   0.00070  -0.00022   0.00000
 297  H 3   s        0.00001   0.00006   0.00000   0.00032   0.00003  -0.00006
 298  H 3   px      -0.00000   0.00000  -0.00000   0.00007   0.00000   0.00000
 299  H 3   py      -0.00000   0.00000   0.00000  -0.00020   0.00000   0.00000
 300  H 3   pz      -0.00000  -0.00000  -0.00000   0.00006   0.00000   0.00000
 301  H 3   px       0.00000  -0.00001   0.00000  -0.00012  -0.00001  -0.00000
 302  H 3   py       0.00000  -0.00001  -0.00001   0.00011  -0.00002  -0.00004
 303  H 3   pz       0.00000   0.00000   0.00001  -0.00006  -0.00000  -0.00001
 304  H 3   px      -0.00001  -0.00000  -0.00001  -0.00178  -0.00000  -0.00005
 305  H 3   py      -0.00001   0.00002   0.00001   0.00765   0.00017   0.00042
 306  H 3   pz       0.00000   0.00003   0.00004  -0.00176  -0.00000   0.00004
 307  H 3   px      -0.00002  -0.00002  -0.00012  -0.00056   0.00010  -0.00023
 308  H 3   py       0.00003   0.00007   0.00015   0.00183  -0.00003   0.00013
 309  H 3   pz       0.00003  -0.00003   0.00013  -0.00089  -0.00015  -0.00011
 310  H 3   d 1     -0.00000   0.00000  -0.00000   0.00006   0.00000  -0.00000
 311  H 3   d 2      0.00000  -0.00000   0.00000   0.00007  -0.00000  -0.00001
 312  H 3   d 3      0.00000   0.00000   0.00000   0.00007  -0.00000   0.00000
 313  H 3   d 4      0.00000  -0.00000  -0.00000  -0.00004   0.00000  -0.00001
 314  H 3   d 5     -0.00000   0.00000  -0.00000   0.00015   0.00000   0.00001
 315  H 3   d 1      0.00000  -0.00000   0.00001  -0.00101  -0.00002  -0.00002
 316  H 3   d 2     -0.00000   0.00001   0.00001  -0.00098   0.00000   0.00001
 317  H 3   d 3      0.00000  -0.00000  -0.00000  -0.00106  -0.00000  -0.00003
 318  H 3   d 4     -0.00000  -0.00000   0.00001   0.00032  -0.00000   0.00004
 319  H 3   d 5      0.00000   0.00001   0.00001  -0.00190  -0.00002  -0.00006
 320  H 3   d 1     -0.00001  -0.00001  -0.00005  -0.00122   0.00004  -0.00013
 321  H 3   d 2      0.00001   0.00000   0.00006  -0.00125  -0.00006  -0.00007
 322  H 3   d 3     -0.00000  -0.00001  -0.00004  -0.00125  -0.00002  -0.00005
 323  H 3   d 4     -0.00000   0.00000  -0.00005   0.00026   0.00002  -0.00005
 324  H 3   d 5      0.00001  -0.00003  -0.00003  -0.00218  -0.00008  -0.00009
 325  H 3   f 1      0.00000   0.00000   0.00000  -0.00016   0.00000  -0.00000
 326  H 3   f 2      0.00000  -0.00000   0.00000   0.00007  -0.00000   0.00001
 327  H 3   f 3      0.00000  -0.00000   0.00000  -0.00012  -0.00000   0.00001
 328  H 3   f 4      0.00000  -0.00000   0.00000   0.00010   0.00000   0.00000
 329  H 3   f 5     -0.00000   0.00000  -0.00000   0.00004   0.00000   0.00001
 330  H 3   f 6     -0.00000  -0.00000   0.00000   0.00012   0.00000  -0.00000
 331  H 3   f 7     -0.00000  -0.00000  -0.00000   0.00015   0.00000   0.00000
 332  H 3   f 1      0.00000  -0.00001  -0.00000  -0.00076  -0.00003  -0.00001
 333  H 3   f 2     -0.00000   0.00000  -0.00001   0.00029   0.00001  -0.00002
 334  H 3   f 3      0.00000  -0.00000  -0.00001  -0.00061  -0.00001  -0.00004
 335  H 3   f 4     -0.00000  -0.00000  -0.00001   0.00051   0.00001   0.00002
 336  H 3   f 5      0.00000  -0.00000   0.00000   0.00013  -0.00001  -0.00000
 337  H 3   f 6     -0.00000  -0.00001  -0.00001   0.00055   0.00000   0.00003
 338  H 3   f 7      0.00000   0.00000   0.00001   0.00076   0.00000   0.00004
 339  H 3   g 1     -0.00000   0.00000   0.00000   0.00012   0.00000   0.00000
 340  H 3   g 2     -0.00000  -0.00000  -0.00000   0.00007   0.00000   0.00000
 341  H 3   g 3      0.00000   0.00000   0.00000   0.00003  -0.00000   0.00000
 342  H 3   g 4     -0.00000   0.00000  -0.00000   0.00010   0.00000   0.00000
 343  H 3   g 5     -0.00000   0.00000   0.00000   0.00003   0.00000   0.00000
 344  H 3   g 6      0.00000  -0.00000   0.00000  -0.00002  -0.00000  -0.00000
 345  H 3   g 7     -0.00000   0.00000   0.00000   0.00006   0.00000   0.00000
 346  H 3   g 8      0.00000   0.00000   0.00000  -0.00006  -0.00000   0.00000
 347  H 3   g 9     -0.00000   0.00000  -0.00000   0.00007   0.00000  -0.00000
 348  H 4   s        0.00000  -0.00000  -0.00000  -0.00028   0.00001   0.00000
 349  H 4   s       -0.00001  -0.00007  -0.00002  -0.00127  -0.00004   0.00004
 350  H 4   s        0.00012   0.00039   0.00053   0.01198  -0.00037  -0.00089
 351  H 4   s       -0.00004   0.00054   0.00020   0.00361   0.00016  -0.00055
 352  H 4   s       -0.00001  -0.00028  -0.00001  -0.00029  -0.00009   0.00011
 353  H 4   px      -0.00000   0.00000  -0.00000  -0.00023   0.00000   0.00000
 354  H 4   py       0.00000  -0.00000  -0.00000   0.00003   0.00000  -0.00000
 355  H 4   pz       0.00000  -0.00000   0.00000   0.00010   0.00000   0.00001
 356  H 4   px       0.00000  -0.00003   0.00000   0.00045  -0.00002   0.00000
 357  H 4   py       0.00000   0.00002   0.00000  -0.00009  -0.00000   0.00001
 358  H 4   pz      -0.00000   0.00002  -0.00001  -0.00019  -0.00002  -0.00004
 359  H 4   px       0.00004   0.00029   0.00021   0.00855  -0.00009  -0.00028
 360  H 4   py      -0.00001  -0.00004  -0.00009  -0.00056   0.00001   0.00004
 361  H 4   pz      -0.00001  -0.00016   0.00002  -0.00368   0.00009   0.00014
 362  H 4   px      -0.00002   0.00026   0.00010   0.00346   0.00013  -0.00024
 363  H 4   py       0.00001  -0.00003  -0.00003  -0.00053  -0.00016   0.00007
 364  H 4   pz      -0.00006  -0.00006  -0.00005  -0.00138   0.00003   0.00022
 365  H 4   d 1      0.00000  -0.00000   0.00000  -0.00000  -0.00000  -0.00000
 366  H 4   d 2      0.00000   0.00000  -0.00000  -0.00001  -0.00001   0.00000
 367  H 4   d 3     -0.00000  -0.00000   0.00000   0.00003  -0.00001  -0.00000
 368  H 4   d 4     -0.00000   0.00000  -0.00000   0.00009   0.00000   0.00000
 369  H 4   d 5     -0.00000  -0.00001  -0.00000  -0.00010   0.00000   0.00000
 370  H 4   d 1     -0.00000  -0.00000  -0.00002  -0.00028   0.00001   0.00002
 371  H 4   d 2      0.00000  -0.00000   0.00001   0.00014   0.00003  -0.00001
 372  H 4   d 3      0.00000  -0.00001  -0.00002  -0.00078   0.00002   0.00001
 373  H 4   d 4     -0.00000  -0.00003   0.00000  -0.00182   0.00000  -0.00000
 374  H 4   d 5      0.00001   0.00005   0.00003   0.00209  -0.00001  -0.00004
 375  H 4   d 1      0.00000  -0.00005  -0.00005  -0.00053  -0.00008   0.00001
 376  H 4   d 2      0.00000   0.00002   0.00001   0.00020  -0.00005  -0.00002
 377  H 4   d 3     -0.00000  -0.00006  -0.00004  -0.00101  -0.00008   0.00005
 378  H 4   d 4     -0.00002  -0.00011   0.00001  -0.00217   0.00004   0.00013
 379  H 4   d 5     -0.00000   0.00009   0.00003   0.00269   0.00003   0.00001
 380  H 4   f 1     -0.00000   0.00000  -0.00000  -0.00003   0.00000   0.00000
 381  H 4   f 2      0.00000   0.00000   0.00000   0.00003   0.00000  -0.00000
 382  H 4   f 3      0.00000  -0.00000   0.00000   0.00000   0.00000   0.00000
 383  H 4   f 4      0.00000   0.00000   0.00000   0.00015   0.00000   0.00000
 384  H 4   f 5     -0.00000   0.00000  -0.00000  -0.00004   0.00000  -0.00000
 385  H 4   f 6     -0.00000  -0.00000  -0.00000  -0.00021   0.00000  -0.00000
 386  H 4   f 7      0.00000   0.00000   0.00000   0.00020   0.00000  -0.00001
 387  H 4   f 1      0.00000  -0.00002  -0.00002  -0.00027  -0.00002   0.00000
 388  H 4   f 2      0.00000   0.00001   0.00000   0.00015  -0.00000  -0.00001
 389  H 4   f 3     -0.00000   0.00000   0.00000   0.00002   0.00000  -0.00000
 390  H 4   f 4      0.00000   0.00002  -0.00000   0.00070  -0.00001  -0.00002
 391  H 4   f 5      0.00000  -0.00001  -0.00001  -0.00025  -0.00002   0.00002
 392  H 4   f 6     -0.00000  -0.00003   0.00000  -0.00097   0.00001   0.00003
 393  H 4   f 7      0.00000   0.00002   0.00000   0.00095   0.00000   0.00002
 394  H 4   g 1      0.00000  -0.00000  -0.00000  -0.00003  -0.00000  -0.00000
 395  H 4   g 2      0.00000   0.00000   0.00000   0.00002   0.00000  -0.00000
 396  H 4   g 3     -0.00000   0.00000   0.00000   0.00000   0.00000  -0.00000
 397  H 4   g 4     -0.00000  -0.00000  -0.00000  -0.00000  -0.00000   0.00000
 398  H 4   g 5     -0.00000  -0.00000   0.00000  -0.00002   0.00000  -0.00000
 399  H 4   g 6      0.00000   0.00000   0.00000   0.00010  -0.00000  -0.00000
 400  H 4   g 7      0.00000   0.00000  -0.00000   0.00000  -0.00000   0.00000
 401  H 4   g 8     -0.00000  -0.00000   0.00000  -0.00010   0.00000   0.00000
 402  H 4   g 9      0.00000   0.00000   0.00000   0.00009   0.00000   0.00000
 403  O 3   s        0.00000  -0.00000  -0.00001  -0.00001   0.00008   0.97849
 404  O 3   s        0.00000  -0.00000  -0.00002   0.00002   0.00001   0.03093
 405  O 3   s        0.00000  -0.00001  -0.00003   0.00003   0.00001   0.08509
 406  O 3   s       -0.00002   0.00004   0.00007  -0.00003  -0.00004  -0.01545
 407  O 3   s        0.00006  -0.00003   0.00028  -0.00069   0.00043  -0.01567
 408  O 3   s       -0.00002  -0.00010  -0.00038  -0.00031   0.00115  -0.00525
 409  O 3   px       0.00000  -0.00000  -0.00000   0.00000  -0.00000  -0.00016
 410  O 3   py       0.00000  -0.00000  -0.00000  -0.00000  -0.00000   0.00058
 411  O 3   pz       0.00000   0.00000   0.00000   0.00000   0.00000  -0.00103
 412  O 3   px      -0.00000   0.00000   0.00003  -0.00001   0.00002  -0.00026
 413  O 3   py      -0.00000   0.00000  -0.00000   0.00001  -0.00001   0.00031
 414  O 3   pz      -0.00000  -0.00000  -0.00001  -0.00004  -0.00000  -0.00066
 415  O 3   px       0.00002  -0.00003  -0.00030   0.00011  -0.00011   0.00325
 416  O 3   py       0.00001   0.00000   0.00004  -0.00009   0.00005  -0.00450
 417  O 3   pz       0.00000   0.00001  -0.00000   0.00025  -0.00002   0.00815
 418  O 3   px      -0.00003   0.00001   0.00006  -0.00000  -0.00072   0.00078
 419  O 3   py      -0.00004  -0.00001   0.00001   0.00007   0.00032  -0.00106
 420  O 3   pz      -0.00004   0.00013   0.00002   0.00025   0.00013   0.00086
 421  O 3   px       0.00000   0.00005  -0.00002   0.00003   0.00001  -0.00040
 422  O 3   py      -0.00003   0.00003  -0.00010   0.00001   0.00016  -0.00057
 423  O 3   pz      -0.00002   0.00001   0.00007  -0.00005  -0.00011   0.00026
 424  O 3   d 1      0.00000  -0.00000   0.00000  -0.00000  -0.00000  -0.00005
 425  O 3   d 2      0.00000   0.00000   0.00000  -0.00000   0.00000  -0.00013
 426  O 3   d 3     -0.00000   0.00000   0.00000  -0.00000   0.00000  -0.00000
 427  O 3   d 4      0.00000  -0.00000  -0.00000   0.00000   0.00000  -0.00004
 428  O 3   d 5      0.00000  -0.00000  -0.00000  -0.00000  -0.00000   0.00022
 429  O 3   d 1     -0.00000   0.00000  -0.00000   0.00001   0.00000   0.00009
 430  O 3   d 2     -0.00000  -0.00000  -0.00001   0.00000   0.00000   0.00021
 431  O 3   d 3      0.00000   0.00000  -0.00000   0.00001  -0.00000  -0.00001
 432  O 3   d 4     -0.00000   0.00000   0.00001   0.00000  -0.00001   0.00004
 433  O 3   d 5     -0.00000   0.00000   0.00000   0.00001   0.00000  -0.00037
 434  O 3   d 1      0.00000  -0.00000  -0.00004  -0.00002  -0.00004   0.00084
 435  O 3   d 2      0.00001   0.00001   0.00003   0.00005  -0.00003   0.00152
 436  O 3   d 3     -0.00000  -0.00001  -0.00005  -0.00008  -0.00002   0.00043
 437  O 3   d 4     -0.00000  -0.00000   0.00007  -0.00010   0.00005   0.00027
 438  O 3   d 5      0.00001  -0.00000   0.00006  -0.00005   0.00001  -0.00268
 439  O 3   d 1     -0.00003   0.00001   0.00003  -0.00012  -0.00008  -0.00036
 440  O 3   d 2     -0.00000   0.00002  -0.00002  -0.00002  -0.00002  -0.00067
 441  O 3   d 3     -0.00001  -0.00002  -0.00002   0.00003  -0.00012   0.00019
 442  O 3   d 4      0.00001  -0.00004  -0.00007  -0.00003  -0.00002   0.00002
 443  O 3   d 5      0.00004  -0.00003   0.00001  -0.00003  -0.00001   0.00058
 444  O 3   f 1      0.00000  -0.00000   0.00000  -0.00000  -0.00000   0.00009
 445  O 3   f 2     -0.00000   0.00000  -0.00000   0.00000  -0.00000  -0.00000
 446  O 3   f 3     -0.00000   0.00000   0.00000   0.00000  -0.00000   0.00001
 447  O 3   f 4      0.00000   0.00000  -0.00000   0.00000  -0.00000   0.00008
 448  O 3   f 5     -0.00000  -0.00000   0.00000  -0.00001  -0.00000   0.00008
 449  O 3   f 6      0.00000  -0.00000  -0.00000  -0.00000   0.00000  -0.00010
 450  O 3   f 7      0.00000   0.00000   0.00000  -0.00000   0.00000  -0.00002
 451  O 3   f 1     -0.00000   0.00000   0.00000   0.00001   0.00001  -0.00077
 452  O 3   f 2      0.00000  -0.00000   0.00001  -0.00002   0.00000  -0.00001
 453  O 3   f 3      0.00000  -0.00000  -0.00001  -0.00002   0.00001  -0.00014
 454  O 3   f 4     -0.00000  -0.00000   0.00001  -0.00001   0.00001  -0.00060
 455  O 3   f 5      0.00000   0.00000  -0.00000   0.00004   0.00001  -0.00064
 456  O 3   f 6     -0.00000   0.00000  -0.00000   0.00002  -0.00000   0.00087
 457  O 3   f 7     -0.00000  -0.00000  -0.00001   0.00001  -0.00001   0.00020
 458  O 3   f 1      0.00000  -0.00001  -0.00000   0.00002   0.00003   0.00028
 459  O 3   f 2     -0.00000  -0.00001  -0.00002   0.00002  -0.00003   0.00004
 460  O 3   f 3     -0.00001  -0.00001  -0.00001  -0.00001  -0.00001   0.00016
 461  O 3   f 4      0.00001  -0.00001  -0.00000  -0.00004  -0.00004   0.00024
 462  O 3   f 5      0.00000   0.00001   0.00002   0.00003   0.00003   0.00019
 463  O 3   f 6     -0.00001   0.00002   0.00000   0.00004   0.00008  -0.00030
 464  O 3   f 7      0.00000   0.00000   0.00001   0.00001  -0.00003   0.00002
 465  O 3   g 1      0.00000  -0.00000  -0.00000   0.00000   0.00000   0.00005
 466  O 3   g 2      0.00000  -0.00000  -0.00000   0.00000  -0.00000   0.00013
 467  O 3   g 3      0.00000  -0.00000  -0.00000   0.00000  -0.00000  -0.00005
 468  O 3   g 4      0.00000   0.00000   0.00000   0.00000   0.00000  -0.00001
 469  O 3   g 5     -0.00000  -0.00000   0.00000   0.00000  -0.00000   0.00006
 470  O 3   g 6      0.00000  -0.00000  -0.00000   0.00000  -0.00000   0.00008
 471  O 3   g 7     -0.00000   0.00000  -0.00000  -0.00000   0.00000  -0.00006
 472  O 3   g 8     -0.00000   0.00000   0.00000  -0.00000  -0.00000  -0.00001
 473  O 3   g 9     -0.00000   0.00000   0.00000   0.00000   0.00000  -0.00001
 474  O 3   g 1     -0.00000   0.00000   0.00000  -0.00001  -0.00001   0.00002
 475  O 3   g 2      0.00000   0.00000   0.00001   0.00000   0.00000   0.00003
 476  O 3   g 3     -0.00000   0.00000   0.00000   0.00001   0.00001  -0.00002
 477  O 3   g 4     -0.00000  -0.00000  -0.00000  -0.00000  -0.00001  -0.00003
 478  O 3   g 5      0.00000   0.00000   0.00000   0.00002   0.00001  -0.00000
 479  O 3   g 6     -0.00000   0.00000   0.00001  -0.00000  -0.00000   0.00003
 480  O 3   g 7      0.00000  -0.00000  -0.00001  -0.00001  -0.00002  -0.00000
 481  O 3   g 8      0.00000  -0.00000  -0.00000  -0.00001   0.00001  -0.00002
 482  O 3   g 9      0.00000  -0.00000   0.00000  -0.00001  -0.00001  -0.00003
 483  O 3   h 1      0.00000  -0.00000  -0.00000   0.00000   0.00000  -0.00005
 484  O 3   h 2     -0.00000  -0.00000  -0.00000  -0.00000   0.00000  -0.00002
 485  O 3   h 3      0.00000  -0.00000  -0.00000  -0.00000  -0.00000  -0.00005
 486  O 3   h 4      0.00000   0.00000   0.00000  -0.00000  -0.00000   0.00004
 487  O 3   h 5      0.00000   0.00000   0.00000   0.00000   0.00000   0.00001
 488  O 3   h 6      0.00000  -0.00000  -0.00000  -0.00000  -0.00000   0.00000
 489  O 3   h 7     -0.00000  -0.00000  -0.00000  -0.00000   0.00000  -0.00000
 490  O 3   h 8     -0.00000  -0.00000   0.00000   0.00000   0.00000  -0.00001
 491  O 3   h 9      0.00000   0.00000   0.00000   0.00000  -0.00000  -0.00002
 492  O 3   h10     -0.00000  -0.00000  -0.00000   0.00000   0.00000   0.00002
 493  O 3   h11      0.00000  -0.00000  -0.00000   0.00000   0.00000   0.00000
 494  H 5   s        0.00000  -0.00000  -0.00000   0.00001  -0.00000  -0.00023
 495  H 5   s       -0.00001   0.00002   0.00011  -0.00008   0.00005  -0.00164
 496  H 5   s       -0.00006   0.00008  -0.00039   0.00014  -0.00049   0.01147
 497  H 5   s        0.00004   0.00002   0.00014   0.00089  -0.00096   0.00376
 498  H 5   s       -0.00008   0.00014   0.00002   0.00014   0.00010  -0.00021
 499  H 5   px      -0.00000  -0.00000   0.00000  -0.00001   0.00001  -0.00021
 500  H 5   py      -0.00000   0.00000   0.00000  -0.00000   0.00000   0.00008
 501  H 5   pz      -0.00000   0.00000  -0.00000   0.00000   0.00001  -0.00008
 502  H 5   px       0.00000   0.00000   0.00002   0.00002  -0.00002   0.00027
 503  H 5   py       0.00000  -0.00000  -0.00002   0.00002  -0.00001  -0.00007
 504  H 5   pz       0.00000   0.00000   0.00002  -0.00000  -0.00002   0.00002
 505  H 5   px      -0.00001   0.00002  -0.00022   0.00024  -0.00008   0.00780
 506  H 5   py       0.00001  -0.00001   0.00015  -0.00020   0.00006  -0.00320
 507  H 5   pz      -0.00002  -0.00002  -0.00017   0.00004  -0.00011   0.00399
 508  H 5   px       0.00007  -0.00000  -0.00001   0.00008  -0.00063   0.00328
 509  H 5   py       0.00003  -0.00003  -0.00006  -0.00023   0.00006  -0.00104
 510  H 5   pz       0.00003  -0.00010   0.00003  -0.00039  -0.00061   0.00135
 511  H 5   d 1     -0.00000  -0.00000  -0.00000   0.00000   0.00001   0.00011
 512  H 5   d 2      0.00000  -0.00000  -0.00001   0.00000  -0.00000   0.00006
 513  H 5   d 3      0.00000  -0.00000  -0.00000   0.00002  -0.00000   0.00006
 514  H 5   d 4     -0.00000   0.00000   0.00001   0.00001   0.00000  -0.00010
 515  H 5   d 5     -0.00000   0.00000   0.00000  -0.00000   0.00000  -0.00009
 516  H 5   d 1      0.00000  -0.00000   0.00003  -0.00004  -0.00001  -0.00149
 517  H 5   d 2     -0.00000   0.00000   0.00003  -0.00001   0.00001  -0.00072
 518  H 5   d 3     -0.00000  -0.00000   0.00001  -0.00011   0.00001  -0.00078
 519  H 5   d 4      0.00000  -0.00000  -0.00005  -0.00008  -0.00003   0.00167
 520  H 5   d 5      0.00000   0.00000  -0.00002   0.00003  -0.00003   0.00151
 521  H 5   d 1     -0.00000  -0.00000   0.00008  -0.00013   0.00003  -0.00176
 522  H 5   d 2      0.00000   0.00001   0.00002   0.00004   0.00005  -0.00077
 523  H 5   d 3     -0.00001  -0.00002   0.00003   0.00000  -0.00009  -0.00090
 524  H 5   d 4      0.00000  -0.00004  -0.00008   0.00014  -0.00015   0.00248
 525  H 5   d 5      0.00002  -0.00001  -0.00008   0.00008  -0.00002   0.00208
 526  H 5   f 1      0.00000  -0.00000   0.00000  -0.00001   0.00000  -0.00018
 527  H 5   f 2      0.00000   0.00000   0.00000   0.00000  -0.00000  -0.00015
 528  H 5   f 3     -0.00000   0.00000   0.00000   0.00000   0.00000   0.00001
 529  H 5   f 4      0.00000  -0.00000   0.00000  -0.00000   0.00000  -0.00014
 530  H 5   f 5      0.00000   0.00000  -0.00000   0.00001   0.00000  -0.00003
 531  H 5   f 6     -0.00000   0.00000  -0.00000   0.00000  -0.00000   0.00016
 532  H 5   f 7     -0.00000   0.00000   0.00000  -0.00000   0.00000   0.00007
 533  H 5   f 1      0.00000   0.00000   0.00002  -0.00004   0.00000  -0.00091
 534  H 5   f 2     -0.00000   0.00000   0.00003  -0.00002   0.00001  -0.00073
 535  H 5   f 3      0.00000   0.00000  -0.00000   0.00002  -0.00000   0.00004
 536  H 5   f 4     -0.00000   0.00001   0.00002  -0.00001  -0.00000  -0.00075
 537  H 5   f 5     -0.00000  -0.00001   0.00000  -0.00012  -0.00004  -0.00019
 538  H 5   f 6      0.00000  -0.00001  -0.00002  -0.00002  -0.00002   0.00079
 539  H 5   f 7      0.00001  -0.00000  -0.00001   0.00001  -0.00001   0.00048
 540  H 5   g 1     -0.00000  -0.00000   0.00000  -0.00001   0.00000  -0.00011
 541  H 5   g 2     -0.00000   0.00000   0.00000   0.00000   0.00000  -0.00012
 542  H 5   g 3     -0.00000   0.00000   0.00000   0.00001   0.00000  -0.00001
 543  H 5   g 4     -0.00000  -0.00000  -0.00000   0.00000  -0.00000   0.00003
 544  H 5   g 5     -0.00000   0.00000   0.00000   0.00001   0.00000  -0.00003
 545  H 5   g 6     -0.00000   0.00000   0.00000  -0.00000  -0.00000  -0.00011
 546  H 5   g 7     -0.00000  -0.00000  -0.00000  -0.00001  -0.00000   0.00000
 547  H 5   g 8      0.00000  -0.00000  -0.00000  -0.00000  -0.00000   0.00006
 548  H 5   g 9      0.00000   0.00000   0.00000  -0.00000  -0.00000   0.00001
 549  H 6   s        0.00000  -0.00000  -0.00000  -0.00000  -0.00000  -0.00017
 550  H 6   s        0.00000   0.00000  -0.00002  -0.00002   0.00001  -0.00155
 551  H 6   s       -0.00002   0.00008   0.00004   0.00025   0.00025   0.00834
 552  H 6   s       -0.00003  -0.00004   0.00023  -0.00008  -0.00026   0.00285
 553  H 6   s        0.00000  -0.00003  -0.00002  -0.00007  -0.00001   0.00023
 554  H 6   px       0.00000   0.00000   0.00000  -0.00000   0.00000   0.00013
 555  H 6   py       0.00000  -0.00000  -0.00000   0.00000  -0.00000   0.00005
 556  H 6   pz       0.00000  -0.00000  -0.00000   0.00001  -0.00000  -0.00012
 557  H 6   px      -0.00000  -0.00000   0.00000   0.00001  -0.00001  -0.00004
 558  H 6   py      -0.00000   0.00000   0.00000  -0.00001   0.00001   0.00001
 559  H 6   pz      -0.00000   0.00000   0.00001  -0.00003   0.00001  -0.00008
 560  H 6   px       0.00001  -0.00002  -0.00008  -0.00007   0.00003  -0.00444
 561  H 6   py       0.00002  -0.00001  -0.00003   0.00000  -0.00013  -0.00184
 562  H 6   pz      -0.00001   0.00002   0.00003   0.00014   0.00009   0.00515
 563  H 6   px       0.00001   0.00001  -0.00006   0.00008   0.00003  -0.00156
 564  H 6   py       0.00003  -0.00002   0.00001  -0.00005  -0.00004  -0.00054
 565  H 6   pz      -0.00002  -0.00001   0.00006   0.00013  -0.00002   0.00207
 566  H 6   d 1     -0.00000   0.00000  -0.00000   0.00000  -0.00000  -0.00007
 567  H 6   d 2     -0.00000   0.00000   0.00000   0.00000   0.00000   0.00008
 568  H 6   d 3      0.00000  -0.00000   0.00000   0.00000  -0.00000  -0.00007
 569  H 6   d 4     -0.00000  -0.00000   0.00000  -0.00000  -0.00000   0.00018
 570  H 6   d 5     -0.00000  -0.00000  -0.00000  -0.00000   0.00000  -0.00006
 571  H 6   d 1     -0.00000   0.00000   0.00001  -0.00001   0.00001   0.00071
 572  H 6   d 2      0.00000  -0.00000  -0.00001  -0.00001  -0.00003  -0.00081
 573  H 6   d 3     -0.00000   0.00000   0.00000  -0.00000   0.00002   0.00065
 574  H 6   d 4      0.00000  -0.00000  -0.00003  -0.00000   0.00001  -0.00189
 575  H 6   d 5      0.00000   0.00000   0.00001   0.00001  -0.00002   0.00069
 576  H 6   d 1     -0.00001   0.00001   0.00001   0.00003   0.00003   0.00086
 577  H 6   d 2      0.00002  -0.00001  -0.00001  -0.00002  -0.00006  -0.00078
 578  H 6   d 3     -0.00000   0.00000  -0.00000   0.00005   0.00002   0.00087
 579  H 6   d 4      0.00001   0.00000  -0.00004  -0.00009   0.00002  -0.00237
 580  H 6   d 5     -0.00000  -0.00000   0.00003  -0.00002  -0.00005   0.00081
 581  H 6   f 1      0.00000   0.00000  -0.00000   0.00000  -0.00000  -0.00007
 582  H 6   f 2      0.00000   0.00000   0.00000  -0.00000   0.00000   0.00013
 583  H 6   f 3     -0.00000   0.00000   0.00000  -0.00000  -0.00000  -0.00009
 584  H 6   f 4      0.00000  -0.00000  -0.00000   0.00000   0.00000  -0.00004
 585  H 6   f 5     -0.00000  -0.00000  -0.00000  -0.00000  -0.00000  -0.00018
 586  H 6   f 6      0.00000   0.00000   0.00000  -0.00000  -0.00000   0.00014
 587  H 6   f 7     -0.00000  -0.00000  -0.00000  -0.00000   0.00000  -0.00002
 588  H 6   f 1      0.00000  -0.00000  -0.00001  -0.00000  -0.00000  -0.00036
 589  H 6   f 2     -0.00001   0.00000   0.00001   0.00001   0.00001   0.00066
 590  H 6   f 3      0.00000  -0.00000  -0.00000  -0.00000  -0.00002  -0.00034
 591  H 6   f 4     -0.00000   0.00000  -0.00001  -0.00001   0.00001  -0.00020
 592  H 6   f 5      0.00000  -0.00000  -0.00001  -0.00001   0.00000  -0.00090
 593  H 6   f 6      0.00000  -0.00000   0.00001   0.00001  -0.00002   0.00069
 594  H 6   f 7     -0.00000   0.00000  -0.00001   0.00000   0.00002  -0.00016
 595  H 6   g 1     -0.00000   0.00000   0.00000  -0.00000  -0.00000   0.00004
 596  H 6   g 2      0.00000  -0.00000  -0.00000  -0.00000  -0.00000  -0.00010
 597  H 6   g 3     -0.00000   0.00000   0.00000   0.00000   0.00000   0.00011
 598  H 6   g 4      0.00000   0.00000   0.00000   0.00000  -0.00000  -0.00003
 599  H 6   g 5      0.00000   0.00000  -0.00000  -0.00000   0.00000  -0.00009
 600  H 6   g 6     -0.00000  -0.00000   0.00000   0.00000  -0.00000  -0.00005
 601  H 6   g 7      0.00000   0.00000   0.00000   0.00000  -0.00000   0.00011
 602  H 6   g 8     -0.00000   0.00000  -0.00000  -0.00000   0.00000  -0.00005
 603  H 6   g 9      0.00000  -0.00000   0.00000  -0.00000  -0.00000  -0.00000
 604  O 4   s       -0.00000  -0.00000  -0.97836   0.00001  -0.00001   0.00001
 605  O 4   s       -0.00000  -0.00000  -0.03073   0.00000   0.00001   0.00002
 606  O 4   s       -0.00000  -0.00000  -0.08471   0.00000   0.00002   0.00002
 607  O 4   s        0.00001  -0.00002   0.01467  -0.00001  -0.00008  -0.00002
 608  O 4   s        0.00001   0.00017   0.01169   0.00013  -0.00021  -0.00018
 609  O 4   s       -0.00007   0.00000   0.00457  -0.00134  -0.00055  -0.00003
 610  O 4   px       0.00000  -0.00000  -0.00016   0.00000   0.00000   0.00000
 611  O 4   py       0.00000  -0.00000   0.00016   0.00000   0.00000   0.00000
 612  O 4   pz       0.00000   0.00000  -0.00110  -0.00000   0.00000  -0.00000
 613  O 4   px      -0.00000   0.00000  -0.00018  -0.00000  -0.00001  -0.00000
 614  O 4   py      -0.00000   0.00000  -0.00001  -0.00002  -0.00003  -0.00001
 615  O 4   pz      -0.00000  -0.00000  -0.00063  -0.00001   0.00000   0.00000
 616  O 4   px       0.00001  -0.00000   0.00192   0.00004   0.00004   0.00001
 617  O 4   py       0.00001  -0.00001   0.00051   0.00014   0.00022   0.00006
 618  O 4   pz       0.00001   0.00003   0.00793   0.00006  -0.00003  -0.00004
 619  O 4   px       0.00004   0.00003   0.00032  -0.00004  -0.00011   0.00008
 620  O 4   py      -0.00003  -0.00003   0.00056   0.00044  -0.00000   0.00039
 621  O 4   pz      -0.00004   0.00007   0.00086  -0.00004   0.00003  -0.00014
 622  O 4   px       0.00004   0.00003  -0.00033  -0.00000   0.00002  -0.00025
 623  O 4   py      -0.00004   0.00002  -0.00076   0.00057   0.00054   0.00018
 624  O 4   pz       0.00004   0.00005   0.00069  -0.00039  -0.00033  -0.00015
 625  O 4   d 1      0.00000   0.00000  -0.00009   0.00000   0.00000   0.00000
 626  O 4   d 2     -0.00000  -0.00000  -0.00002  -0.00000  -0.00000  -0.00000
 627  O 4   d 3     -0.00000   0.00000  -0.00002   0.00000   0.00000   0.00000
 628  O 4   d 4     -0.00000   0.00000  -0.00009  -0.00000  -0.00000  -0.00000
 629  O 4   d 5      0.00000   0.00000   0.00023  -0.00000   0.00000   0.00000
 630  O 4   d 1     -0.00000  -0.00000   0.00016  -0.00000  -0.00001  -0.00001
 631  O 4   d 2     -0.00000   0.00000   0.00005   0.00001  -0.00000   0.00000
 632  O 4   d 3      0.00000  -0.00000   0.00006  -0.00001  -0.00000  -0.00000
 633  O 4   d 4     -0.00000  -0.00000   0.00017   0.00001   0.00001   0.00001
 634  O 4   d 5     -0.00000  -0.00000  -0.00035   0.00000  -0.00000  -0.00000
 635  O 4   d 1      0.00001   0.00000   0.00117   0.00001   0.00003   0.00003
 636  O 4   d 2      0.00001  -0.00000   0.00074   0.00006   0.00010   0.00001
 637  O 4   d 3     -0.00001   0.00000   0.00009   0.00006  -0.00002   0.00000
 638  O 4   d 4      0.00001   0.00001   0.00075  -0.00001  -0.00002  -0.00001
 639  O 4   d 5      0.00001  -0.00001  -0.00242  -0.00001  -0.00000   0.00002
 640  O 4   d 1      0.00001   0.00000  -0.00017  -0.00009  -0.00004   0.00004
 641  O 4   d 2      0.00001   0.00001  -0.00006   0.00021   0.00000   0.00002
 642  O 4   d 3      0.00002   0.00001  -0.00016   0.00005  -0.00010  -0.00008
 643  O 4   d 4      0.00003  -0.00002  -0.00027   0.00004   0.00003   0.00003
 644  O 4   d 5      0.00005  -0.00002   0.00084   0.00010  -0.00020   0.00004
 645  O 4   f 1     -0.00000  -0.00000  -0.00003  -0.00000   0.00000  -0.00000
 646  O 4   f 2     -0.00000  -0.00000  -0.00007   0.00000   0.00000   0.00000
 647  O 4   f 3     -0.00000  -0.00000  -0.00004  -0.00000   0.00000   0.00000
 648  O 4   f 4     -0.00000   0.00000   0.00008   0.00000   0.00000   0.00000
 649  O 4   f 5     -0.00000   0.00000  -0.00002  -0.00000   0.00000  -0.00000
 650  O 4   f 6     -0.00000   0.00000   0.00013   0.00000   0.00000   0.00000
 651  O 4   f 7     -0.00000   0.00000   0.00003  -0.00000   0.00000   0.00000
 652  O 4   f 1      0.00000   0.00000   0.00026  -0.00000  -0.00002  -0.00000
 653  O 4   f 2      0.00000   0.00000   0.00055  -0.00000  -0.00001  -0.00000
 654  O 4   f 3      0.00000   0.00000   0.00036   0.00001  -0.00000  -0.00000
 655  O 4   f 4      0.00000  -0.00000  -0.00058   0.00000  -0.00001  -0.00000
 656  O 4   f 5      0.00000   0.00000   0.00017   0.00000  -0.00001   0.00000
 657  O 4   f 6      0.00000  -0.00000  -0.00103  -0.00001  -0.00000   0.00000
 658  O 4   f 7     -0.00000  -0.00000  -0.00022   0.00000  -0.00001  -0.00000
 659  O 4   f 1      0.00001   0.00000  -0.00026  -0.00002  -0.00001  -0.00001
 660  O 4   f 2      0.00001   0.00000  -0.00031  -0.00001   0.00003   0.00002
 661  O 4   f 3      0.00002   0.00000  -0.00021   0.00004  -0.00002  -0.00005
 662  O 4   f 4      0.00001   0.00000   0.00022   0.00003  -0.00008  -0.00001
 663  O 4   f 5      0.00001   0.00000  -0.00004   0.00001  -0.00003  -0.00002
 664  O 4   f 6      0.00002  -0.00000   0.00063  -0.00000  -0.00011  -0.00000
 665  O 4   f 7      0.00000   0.00000   0.00009   0.00002  -0.00002  -0.00002
 666  O 4   g 1     -0.00000  -0.00000  -0.00004  -0.00000   0.00000   0.00000
 667  O 4   g 2     -0.00000   0.00000   0.00004   0.00000  -0.00000  -0.00000
 668  O 4   g 3     -0.00000   0.00000   0.00006   0.00000   0.00000   0.00000
 669  O 4   g 4     -0.00000  -0.00000   0.00005  -0.00000   0.00000   0.00000
 670  O 4   g 5     -0.00000  -0.00000  -0.00009   0.00000   0.00000   0.00000
 671  O 4   g 6      0.00000   0.00000   0.00000  -0.00000   0.00000   0.00000
 672  O 4   g 7     -0.00000  -0.00000  -0.00009   0.00000   0.00000   0.00000
 673  O 4   g 8     -0.00000   0.00000  -0.00005  -0.00000   0.00000   0.00000
[...]
1258  O 7   f 4      0.00012  -0.00013  -0.00009
1259  O 7   f 5      0.00003  -0.00019   0.00017
1260  O 7   f 6     -0.00042  -0.00033   0.00007
1261  O 7   f 7      0.00016   0.00007  -0.00027
1262  O 7   f 1      0.00052  -0.00370   0.00837
1263  O 7   f 2     -0.00255   0.00111  -0.00536
1264  O 7   f 3     -0.00073  -0.00231   0.00417
1265  O 7   f 4      0.00059   0.00229  -0.00382
1266  O 7   f 5     -0.00071  -0.00333   0.00428
1267  O 7   f 6     -0.00127  -0.00095   0.00262
1268  O 7   f 7      0.00158   0.00271   0.00145
1269  O 7   g 1      0.00007  -0.00002   0.00007
1270  O 7   g 2     -0.00004   0.00003  -0.00006
1271  O 7   g 3     -0.00005  -0.00003  -0.00000
1272  O 7   g 4      0.00001  -0.00003   0.00010
1273  O 7   g 5      0.00002   0.00003  -0.00002
1274  O 7   g 6     -0.00003   0.00003  -0.00003
1275  O 7   g 7      0.00001   0.00002  -0.00003
1276  O 7   g 8      0.00003   0.00002   0.00002
1277  O 7   g 9      0.00002   0.00002   0.00004
1278  O 7   g 1     -0.00053   0.00072  -0.00146
1279  O 7   g 2      0.00038  -0.00033   0.00096
1280  O 7   g 3      0.00056  -0.00002   0.00006
1281  O 7   g 4     -0.00006   0.00050  -0.00140
1282  O 7   g 5     -0.00011  -0.00027   0.00018
1283  O 7   g 6      0.00013  -0.00045   0.00065
1284  O 7   g 7     -0.00007   0.00007   0.00026
1285  O 7   g 8     -0.00041   0.00026  -0.00050
1286  O 7   g 9     -0.00030  -0.00029  -0.00036
1287  O 7   h 1      0.00007  -0.00007   0.00011
1288  O 7   h 2      0.00002   0.00003  -0.00003
1289  O 7   h 3     -0.00003   0.00000  -0.00000
1290  O 7   h 4      0.00001  -0.00005   0.00014
1291  O 7   h 5      0.00004  -0.00004   0.00009
1292  O 7   h 6      0.00006  -0.00003   0.00003
1293  O 7   h 7      0.00002   0.00001   0.00004
1294  O 7   h 8     -0.00003   0.00008  -0.00014
1295  O 7   h 9      0.00009  -0.00002   0.00005
1296  O 7   h10      0.00002   0.00001  -0.00006
1297  O 7   h11      0.00001   0.00002   0.00003
1298  H 13  s       -0.00079   0.00109  -0.00102
1299  H 13  s       -0.00489   0.00021   0.00071
1300  H 13  s        0.00541   0.07982  -0.12801
1301  H 13  s        0.10998   0.08984  -0.15745
1302  H 13  s       -0.03609   0.18346  -0.23183
1303  H 13  px       0.00044  -0.00031   0.00045
1304  H 13  py      -0.00015   0.00022  -0.00018
1305  H 13  pz      -0.00018   0.00021  -0.00021
1306  H 13  px      -0.00249   0.00114  -0.00191
1307  H 13  py       0.00070  -0.00053   0.00088
1308  H 13  pz       0.00055  -0.00035   0.00091
1309  H 13  px       0.01783   0.01225  -0.02894
1310  H 13  py      -0.00850  -0.00507   0.00644
1311  H 13  pz      -0.00545  -0.00380   0.00556
1312  H 13  px       0.02173   0.05161  -0.08333
1313  H 13  py      -0.01432  -0.02558   0.01613
1314  H 13  pz      -0.00501  -0.01775   0.02053
1315  H 13  d 1      0.00012   0.00019  -0.00024
1316  H 13  d 2      0.00003  -0.00003   0.00008
1317  H 13  d 3     -0.00011   0.00005   0.00010
1318  H 13  d 4      0.00006   0.00018  -0.00024
1319  H 13  d 5     -0.00008  -0.00006   0.00017
1320  H 13  d 1     -0.00099  -0.00207   0.00317
1321  H 13  d 2      0.00005   0.00063  -0.00095
1322  H 13  d 3      0.00028  -0.00097   0.00131
1323  H 13  d 4     -0.00048  -0.00169   0.00278
1324  H 13  d 5      0.00044   0.00136  -0.00360
1325  H 13  d 1     -0.00989   0.00052  -0.00578
1326  H 13  d 2      0.00290   0.00018   0.00499
1327  H 13  d 3     -0.00901   0.00044   0.00608
1328  H 13  d 4     -0.00462   0.00071  -0.00397
1329  H 13  d 5      0.00676  -0.00099  -0.00756
1330  H 13  f 1      0.00003  -0.00014   0.00029
1331  H 13  f 2      0.00006   0.00006  -0.00017
1332  H 13  f 3     -0.00001   0.00001  -0.00009
1333  H 13  f 4     -0.00001   0.00007  -0.00020
1334  H 13  f 5      0.00002  -0.00009   0.00011
1335  H 13  f 6     -0.00001  -0.00005   0.00020
1336  H 13  f 7     -0.00000   0.00010  -0.00010
1337  H 13  f 1     -0.00182  -0.00030   0.00015
1338  H 13  f 2      0.00060   0.00058   0.00073
1339  H 13  f 3      0.00054   0.00011  -0.00010
1340  H 13  f 4      0.00082   0.00027   0.00021
1341  H 13  f 5     -0.00125   0.00021   0.00108
1342  H 13  f 6     -0.00046  -0.00025   0.00028
1343  H 13  f 7      0.00039  -0.00048  -0.00173
1344  H 13  g 1     -0.00010  -0.00003   0.00010
1345  H 13  g 2      0.00006   0.00008   0.00000
1346  H 13  g 3      0.00005  -0.00000  -0.00007
1347  H 13  g 4     -0.00004  -0.00003  -0.00000
1348  H 13  g 5      0.00006  -0.00000  -0.00006
1349  H 13  g 6      0.00007   0.00003  -0.00005
1350  H 13  g 7     -0.00007   0.00001   0.00007
1351  H 13  g 8      0.00000   0.00001   0.00009
1352  H 13  g 9      0.00001  -0.00003  -0.00011
1353  H 14  s       -0.00095   0.00138  -0.00089
1354  H 14  s       -0.00382   0.00144  -0.00361
1355  H 14  s       -0.00301  -0.01248   0.03740
1356  H 14  s        0.08132  -0.08548   0.21993
1357  H 14  s       -0.13322  -0.01849  -0.05849
1358  H 14  px       0.00009  -0.00020   0.00050
1359  H 14  py       0.00044  -0.00043   0.00079
1360  H 14  pz       0.00036  -0.00042   0.00070
1361  H 14  px      -0.00066   0.00084  -0.00213
1362  H 14  py      -0.00133   0.00060  -0.00257
1363  H 14  pz      -0.00100   0.00044  -0.00176
1364  H 14  px       0.00681  -0.00530   0.01566
1365  H 14  py       0.01069  -0.01482   0.03623
1366  H 14  pz       0.01009  -0.00923   0.02004
1367  H 14  px       0.01718  -0.00600   0.00532
1368  H 14  py       0.01640  -0.01975   0.05837
1369  H 14  pz       0.01855   0.00033   0.01316
1370  H 14  d 1     -0.00001  -0.00021   0.00006
1371  H 14  d 2      0.00001  -0.00008   0.00013
1372  H 14  d 3     -0.00006  -0.00003   0.00003
1373  H 14  d 4     -0.00007  -0.00013   0.00012
1374  H 14  d 5      0.00000  -0.00002   0.00007
1375  H 14  d 1      0.00040   0.00075   0.00070
1376  H 14  d 2      0.00017   0.00003   0.00070
1377  H 14  d 3      0.00031   0.00049  -0.00102
1378  H 14  d 4      0.00067   0.00057  -0.00002
1379  H 14  d 5      0.00011   0.00045  -0.00134
1380  H 14  d 1      0.00770  -0.00617   0.01134
1381  H 14  d 2      0.00815  -0.00203   0.01436
1382  H 14  d 3      0.00026   0.00365  -0.00891
1383  H 14  d 4      0.00554  -0.00319   0.00656
1384  H 14  d 5     -0.00199   0.00346  -0.01328
1385  H 14  f 1      0.00000  -0.00001   0.00003
1386  H 14  f 2      0.00001  -0.00002   0.00015
1387  H 14  f 3     -0.00001  -0.00003   0.00005
1388  H 14  f 4      0.00001   0.00004  -0.00011
1389  H 14  f 5     -0.00000  -0.00001   0.00012
1390  H 14  f 6      0.00003   0.00003  -0.00007
1391  H 14  f 7      0.00002  -0.00001  -0.00010
1392  H 14  f 1      0.00052   0.00022  -0.00126
1393  H 14  f 2      0.00157  -0.00015   0.00114
1394  H 14  f 3      0.00060   0.00110  -0.00153
1395  H 14  f 4     -0.00068   0.00040  -0.00208
1396  H 14  f 5      0.00036   0.00043  -0.00092
1397  H 14  f 6     -0.00037  -0.00007  -0.00152
1398  H 14  f 7     -0.00118   0.00042  -0.00142
1399  H 14  g 1     -0.00006   0.00002  -0.00011
1400  H 14  g 2      0.00006  -0.00002  -0.00009
1401  H 14  g 3      0.00007   0.00003  -0.00001
1402  H 14  g 4     -0.00002   0.00009  -0.00025
1403  H 14  g 5     -0.00005  -0.00002  -0.00005
1404  H 14  g 6     -0.00003   0.00004  -0.00009
1405  H 14  g 7     -0.00001  -0.00004   0.00003
1406  H 14  g 8     -0.00012   0.00003  -0.00015
1407  H 14  g 9     -0.00007   0.00001   0.00003
1408  O 8   s       -0.00077  -0.00009   0.00194
1409  O 8   s        0.01740   0.00558  -0.04635
1410  O 8   s       -0.00111  -0.00014  -0.00040
1411  O 8   s        0.03587   0.00486  -0.03080
1412  O 8   s       -0.00933   0.06264  -0.21220
1413  O 8   s       -0.18434   0.06933  -0.72896
1414  O 8   px       0.01337   0.00198  -0.00748
1415  O 8   py      -0.00796  -0.00329  -0.00157
1416  O 8   pz      -0.00530   0.01238   0.02921
1417  O 8   px       0.02413   0.00222  -0.00787
1418  O 8   py      -0.01266  -0.00541  -0.00236
1419  O 8   pz      -0.00658   0.02278   0.04557
1420  O 8   px       0.02436   0.01053  -0.03774
1421  O 8   py      -0.02250  -0.00918  -0.00611
1422  O 8   pz      -0.02724   0.01490   0.08284
1423  O 8   px      -0.05661   0.01814  -0.18983
1424  O 8   py      -0.01390   0.01825  -0.03197
1425  O 8   pz      -0.10518  -0.05819   0.08619
1426  O 8   px      -0.06224   0.07277   0.00903
1427  O 8   py      -0.05595  -0.00632   0.01065
1428  O 8   pz      -0.13805   0.01661   0.27858
1429  O 8   d 1      0.00004   0.00002  -0.00007
1430  O 8   d 2     -0.00003  -0.00004  -0.00002
1431  O 8   d 3     -0.00012  -0.00015  -0.00009
1432  O 8   d 4     -0.00014  -0.00016  -0.00015
1433  O 8   d 5     -0.00011  -0.00015  -0.00031
1434  O 8   d 1     -0.00053  -0.00018   0.00058
1435  O 8   d 2      0.00023   0.00037   0.00064
1436  O 8   d 3     -0.00011   0.00042   0.00155
1437  O 8   d 4      0.00089   0.00102   0.00157
1438  O 8   d 5      0.00092   0.00065   0.00172
1439  O 8   d 1      0.00015   0.00206  -0.00671
1440  O 8   d 2     -0.00036  -0.00124  -0.00588
1441  O 8   d 3      0.00313   0.00017  -0.01434
1442  O 8   d 4     -0.01392  -0.01023  -0.00554
1443  O 8   d 5     -0.00743  -0.00069  -0.01349
1444  O 8   d 1     -0.00643   0.01567  -0.01195
1445  O 8   d 2      0.00024  -0.00322  -0.01819
1446  O 8   d 3      0.00333  -0.02612  -0.05671
1447  O 8   d 4     -0.06779  -0.03885   0.00565
1448  O 8   d 5     -0.02863   0.01485  -0.02000
1449  O 8   f 1     -0.00002  -0.00002   0.00018
1450  O 8   f 2     -0.00001   0.00005   0.00021
1451  O 8   f 3     -0.00003   0.00002   0.00007
1452  O 8   f 4     -0.00001   0.00015  -0.00012
1453  O 8   f 5     -0.00008   0.00012   0.00039
1454  O 8   f 6      0.00002   0.00004   0.00023
1455  O 8   f 7      0.00010   0.00002  -0.00003
1456  O 8   f 1      0.00002   0.00018  -0.00132
1457  O 8   f 2      0.00010  -0.00015  -0.00142
1458  O 8   f 3     -0.00013  -0.00018  -0.00004
1459  O 8   f 4     -0.00012  -0.00100   0.00222
1460  O 8   f 5      0.00075  -0.00033  -0.00252
1461  O 8   f 6     -0.00051  -0.00022  -0.00131
1462  O 8   f 7     -0.00056   0.00004  -0.00029
1463  O 8   f 1     -0.00057   0.00449  -0.00458
1464  O 8   f 2      0.00053  -0.00140  -0.00947
1465  O 8   f 3     -0.00006  -0.00018   0.00060
1466  O 8   f 4      0.00791   0.00387   0.01645
1467  O 8   f 5      0.00332  -0.01254  -0.02674
1468  O 8   f 6     -0.01301  -0.00891  -0.00414
1469  O 8   f 7     -0.00549   0.00245  -0.00286
1470  O 8   g 1      0.00002  -0.00005  -0.00001
1471  O 8   g 2     -0.00001   0.00005   0.00008
1472  O 8   g 3      0.00001   0.00001   0.00005
1473  O 8   g 4      0.00004   0.00004  -0.00004
1474  O 8   g 5      0.00008  -0.00010  -0.00028
1475  O 8   g 6     -0.00006  -0.00012   0.00002
1476  O 8   g 7     -0.00001   0.00015   0.00023
1477  O 8   g 8      0.00007   0.00011  -0.00006
1478  O 8   g 9      0.00003  -0.00002  -0.00007
1479  O 8   g 1     -0.00000   0.00091  -0.00099
1480  O 8   g 2      0.00017  -0.00020  -0.00219
1481  O 8   g 3     -0.00031  -0.00036  -0.00035
1482  O 8   g 4     -0.00028  -0.00049   0.00028
1483  O 8   g 5     -0.00015   0.00188   0.00141
1484  O 8   g 6     -0.00013   0.00030   0.00371
1485  O 8   g 7      0.00019  -0.00196  -0.00374
1486  O 8   g 8     -0.00127  -0.00102  -0.00058
1487  O 8   g 9     -0.00072   0.00032   0.00040
1488  O 8   h 1      0.00002   0.00015  -0.00011
1489  O 8   h 2      0.00004   0.00003  -0.00029
1490  O 8   h 3     -0.00004  -0.00011  -0.00014
1491  O 8   h 4      0.00000  -0.00013  -0.00006
1492  O 8   h 5      0.00004   0.00006   0.00009
1493  O 8   h 6      0.00005   0.00000   0.00005
1494  O 8   h 7      0.00015   0.00011  -0.00019
1495  O 8   h 8     -0.00006  -0.00006   0.00025
1496  O 8   h 9     -0.00001  -0.00019  -0.00033
1497  O 8   h10     -0.00011  -0.00007  -0.00002
1498  O 8   h11     -0.00009   0.00002   0.00010
1499  H 15  s       -0.00166  -0.00026   0.00457
1500  H 15  s        0.00173   0.00471  -0.00293
1501  H 15  s       -0.05638  -0.02182   0.26063
1502  H 15  s       -0.06075  -0.13513   0.09746
1503  H 15  s       -0.37310   0.15117   1.04423
1504  H 15  px      -0.00005   0.00021   0.00092
1505  H 15  py      -0.00002  -0.00020  -0.00028
1506  H 15  pz       0.00066  -0.00048  -0.00271
1507  H 15  px      -0.00012   0.00011  -0.00227
1508  H 15  py       0.00013   0.00114   0.00037
1509  H 15  pz       0.00100   0.00166   0.00272
1510  H 15  px      -0.00658   0.00692   0.01097
1511  H 15  py      -0.00291  -0.00824   0.00439
1512  H 15  pz      -0.00948  -0.02309   0.03817
1513  H 15  px      -0.02667  -0.01184  -0.01853
1514  H 15  py       0.00323  -0.00551   0.00634
1515  H 15  pz      -0.03235  -0.06773   0.04354
1516  H 15  d 1     -0.00002  -0.00009  -0.00005
1517  H 15  d 2      0.00010   0.00009  -0.00023
1518  H 15  d 3      0.00039   0.00006  -0.00090
1519  H 15  d 4      0.00007  -0.00020  -0.00008
1520  H 15  d 5     -0.00003   0.00021   0.00012
1521  H 15  d 1      0.00017   0.00076   0.00011
1522  H 15  d 2     -0.00111  -0.00116   0.00214
1523  H 15  d 3     -0.00274  -0.00155   0.01055
1524  H 15  d 4     -0.00024   0.00291   0.00027
1525  H 15  d 5      0.00003  -0.00136  -0.00084
1526  H 15  d 1     -0.00019  -0.00046  -0.00081
1527  H 15  d 2     -0.00041  -0.00722   0.00068
1528  H 15  d 3     -0.01010  -0.01642   0.00590
1529  H 15  d 4     -0.00854  -0.00300   0.00609
1530  H 15  d 5      0.00300   0.00044  -0.00393
1531  H 15  f 1     -0.00007  -0.00005   0.00001
1532  H 15  f 2     -0.00004   0.00011   0.00001
1533  H 15  f 3     -0.00014  -0.00005   0.00027
1534  H 15  f 4     -0.00007   0.00001   0.00097
1535  H 15  f 5      0.00017   0.00043  -0.00012
1536  H 15  f 6     -0.00010   0.00001   0.00024
1537  H 15  f 7     -0.00000  -0.00014  -0.00007
1538  H 15  f 1      0.00023  -0.00005  -0.00004
1539  H 15  f 2      0.00046   0.00014  -0.00040
1540  H 15  f 3     -0.00037  -0.00186   0.00054
1541  H 15  f 4     -0.00303  -0.00246   0.00227
1542  H 15  f 5     -0.00144   0.00019   0.00124
1543  H 15  f 6      0.00104  -0.00118  -0.00248
1544  H 15  f 7      0.00005   0.00081   0.00057
1545  H 15  g 1      0.00000   0.00002  -0.00000
1546  H 15  g 2     -0.00001  -0.00006  -0.00002
1547  H 15  g 3      0.00004   0.00005  -0.00006
1548  H 15  g 4     -0.00007  -0.00017   0.00012
1549  H 15  g 5     -0.00026  -0.00012   0.00039
1550  H 15  g 6     -0.00003   0.00012   0.00004
1551  H 15  g 7      0.00006  -0.00008  -0.00011
1552  H 15  g 8     -0.00001  -0.00002  -0.00005
1553  H 15  g 9     -0.00001   0.00003   0.00001
1554  H 16  s       -0.00121  -0.00122   0.00193
1555  H 16  s       -0.00382   0.00279   0.00024
1556  H 16  s        0.12098  -0.01395   0.17152
1557  H 16  s        0.31121   0.11272   0.15703
1558  H 16  s        0.28317  -0.02808  -0.33614
1559  H 16  px      -0.00039  -0.00058   0.00051
1560  H 16  py       0.00026   0.00025  -0.00004
1561  H 16  pz      -0.00035  -0.00033   0.00036
1562  H 16  px      -0.00008   0.00092  -0.00126
1563  H 16  py      -0.00183  -0.00133  -0.00002
1564  H 16  pz       0.00009  -0.00036  -0.00055
1565  H 16  px      -0.05424  -0.02828  -0.05889
1566  H 16  py      -0.00893  -0.00293  -0.00142
1567  H 16  pz      -0.02432   0.01271  -0.00156
1568  H 16  px      -0.08060   0.02783  -0.09671
1569  H 16  py      -0.06228  -0.04812   0.00949
1570  H 16  pz       0.01113   0.07712  -0.03698
1571  H 16  d 1     -0.00011   0.00007   0.00050
1572  H 16  d 2     -0.00015  -0.00027   0.00029
1573  H 16  d 3      0.00007   0.00057   0.00035
1574  H 16  d 4      0.00008   0.00027  -0.00016
1575  H 16  d 5      0.00005   0.00028  -0.00044
1576  H 16  d 1      0.00268   0.00107  -0.00163
1577  H 16  d 2      0.00182   0.00124  -0.00180
1578  H 16  d 3     -0.00128  -0.00524  -0.00618
1579  H 16  d 4      0.00312  -0.00239   0.00304
1580  H 16  d 5      0.00265   0.00071   0.00889
1581  H 16  d 1      0.01073   0.01103   0.00316
1582  H 16  d 2      0.00146  -0.00269  -0.00011
1583  H 16  d 3     -0.01064  -0.01214  -0.00820
1584  H 16  d 4      0.00772  -0.01452  -0.01135
1585  H 16  d 5      0.01181   0.01202   0.01454
1586  H 16  f 1     -0.00005  -0.00004  -0.00032
1587  H 16  f 2     -0.00004   0.00012  -0.00019
1588  H 16  f 3      0.00005   0.00023   0.00016
1589  H 16  f 4      0.00027   0.00019   0.00048
1590  H 16  f 5     -0.00018   0.00010   0.00045
1591  H 16  f 6     -0.00034  -0.00002  -0.00054
1592  H 16  f 7     -0.00026  -0.00008  -0.00051
1593  H 16  f 1     -0.00294  -0.00217   0.00218
1594  H 16  f 2     -0.00220  -0.00118   0.00302
1595  H 16  f 3      0.00005  -0.00015   0.00003
1596  H 16  f 4      0.00059  -0.00079  -0.00048
1597  H 16  f 5      0.00203   0.00635   0.00460
1598  H 16  f 6     -0.00005   0.00225   0.00021
1599  H 16  f 7     -0.00009  -0.00127  -0.00389
1600  H 16  g 1      0.00019   0.00016  -0.00008
1601  H 16  g 2      0.00019   0.00007  -0.00019
1602  H 16  g 3      0.00000  -0.00010  -0.00013
1603  H 16  g 4     -0.00006  -0.00004   0.00004
1604  H 16  g 5      0.00001   0.00032   0.00031
1605  H 16  g 6     -0.00008  -0.00015  -0.00023
1606  H 16  g 7     -0.00006  -0.00040  -0.00037
1607  H 16  g 8     -0.00003  -0.00013   0.00021
1608  H 16  g 9      0.00001   0.00004   0.00029

          Ground-State Mulliken Net Atomic Charges

     Atom                 Charge (a.u.)
  ----------------------------------------
      1 O                    -0.667451
      2 H                     0.340149
      3 H                     0.313664
      4 O                    -0.664234
      5 H                     0.321250
      6 H                     0.353033
      7 O                    -0.724165
      8 H                     0.380488
      9 H                     0.334662
     10 O                    -0.654649
     11 H                     0.307974
     12 H                     0.360493
     13 O                    -0.630947
     14 H                     0.316399
     15 H                     0.345674
     16 O                    -0.608433
     17 H                     0.300687
     18 H                     0.319959
     19 O                    -0.755307
     20 H                     0.347328
     21 H                     0.380988
     22 O                    -0.672915
     23 H                     0.276443
     24 H                     0.378909
  ----------------------------------------
  Sum of atomic charges =     0.000000

 -----------------------------------------------------------------
                    Cartesian Multipole Moments
 -----------------------------------------------------------------
    Charge (ESU x 10^10)
                 0.0000
    Dipole Moment (Debye)
         X      -3.6136      Y       2.8747      Z       1.8453
       Tot       4.9727
    Quadrupole Moments (Debye-Ang)
        XX     -67.8916     XY     -12.5507     YY     -36.1267
        XZ      -3.4512     YZ       8.7835     ZZ     -46.0743
    Octopole Moments (Debye-Ang^2)
       XXX     -41.5338    XXY      20.6953    XYY      -9.1614
       YYY      42.2351    XXZ     -47.9147    XYZ       5.5249
       YYZ      43.1037    XZZ      -1.9949    YZZ       7.5900
       ZZZ      56.7583
    Hexadecapole Moments (Debye-Ang^3)
      XXXX   -1608.4460   XXXY    -453.5392   XXYY    -480.8391
      XYYY    -216.4460   YYYY    -669.6970   XXXZ    -318.6738
      XXYZ     -95.3656   XYYZ     -53.8549   YYYZ    -115.6572
      XXZZ    -368.4332   XYZZ     -10.1774   YYZZ    -166.5271
      XZZZ    -150.5478   YZZZ     -61.2450   ZZZZ    -843.5044
 -----------------------------------------------------------------
 Total job time:  8548.81s(wall), 269431.14s(cpu) 
 Tue Dec 17 23:56:11 2024

        *************************************************************
        *                                                           *
        *  Thank you very much for using Q-Chem.  Have a nice day.  *
        *                                                           *
        *************************************************************


