                  Welcome to Q-Chem
     A Quantum Leap Into The Future Of Chemistry


 Q-Chem 6.2 (devel), Q-Chem, Inc., Pleasanton, CA (2024)

 E. Epifanovsky,  A. T. B. Gilbert,  Xintian Feng,  Joonho Lee,  Yuezhi Mao,  
 N. Mardirossian,  P. Pokhilko,  A. White,  M. Wormit,  M. P. Coons,  
 A. L. Dempwolff,  Zhengting Gan,  D. Hait,  P. R. Horn,  L. D. Jacobson,  
 I. Kaliman,  J. Kussmann,  A. W. Lange,  Ka Un Lao,  D. S. Levine,  Jie Liu,  
 S. C. McKenzie,  A. F. Morrison,  K. D. Nanda,  F. Plasser,  D. R. Rehn,  
 M. L. Vidal,  Zhi-Qiang You,  Ying Zhu,  Huseyin Aksu,  B. Alam,  
 B. Albrecht,  A. Aldossary,  E. Alguire,  J. H. Andersen,  
 J. E. Arias-Martinez,  V. Athavale,  D. Barton,  K. Begam,  A. Behn,  
 N. Bellonzi,  Y. A. Bernard,  E. J. Berquist,  H. Burton,  A. Carreras,  
 K. Carter-Fenk,  Mathew Chow,  Romit Chakraborty,  Chandrima Chakravarty,  
 Junhan Chen,  A. D. Chien,  K. D. Closser,  V. Cofer-Shabica,  L. Cunha,  
 S. Dasgupta,  Jia Deng,  Joseph Dickinson,  M. de Wergifosse,  
 M. Diedenhofen,  Hainam Do,  Wenjie Dou,  S. Ehlert,  Po-Tung Fang,  
 S. Fatehi,  Qingguo Feng,  Jonathan Fetherolf,  T. Friedhoff,  
 Thomas Froitzheim,  Sarai Folkestad,  B. Ganoe,  J. Gayvert,  Qinghui Ge,  
 G. Gidofalvi,  M. Gimferrer,  M. Goldey,  Montgomery Gray,  J. Gomes,  
 C. Gonzalez-Espinoza,  S. Gulania,  A. Gunina,  J. A. Gyamfi,  
 M. W. D. Hanson-Heine,  P. H. P. Harbach,  A. W. Hauser,  M. F. Herbst,  
 M. Hernandez Vera,  M. Hodecker,  Z. C. Holden,  S. Houck,  Xunkun Huang,  
 Kerwin Hui,  B. C. Huynh,  K. Ikeda,  M. Ivanov,  Nayanthara K. Jayadev,  
 Hyunjun Ji,  Zuxin Jin,  Hanjie Jiang,  Subrata Jana,  B. Kaduk,  
 S. Kaehler,  R. Kang,  K. Khistyaev,  Jaehoon Kim,  Yongbin Kim,  
 P. Klunzinger,  Z. Koczor-Benda,  Joong Hoon Koh,  D. Kosenkov,  
 Saikiran Kotaru,  L. Koulias,  T. Kowalczyk,  C. M. Krauter,  K. Kue,  
 A. Kunitsa,  T. Kus,  A. Landau,  K. V. Lawler,  D. Lefrancois,  S. Lehtola,  
 Rain Li,  Shaozhi Li,  Tao E. Li,  Yi-Pei Li,  Jiashu Liang,  M. Liebenthal,  
 Hung-Hsuan Lin,  You-Sheng Lin,  Fenglai Liu,  Kuan-Yu Liu,  Xiao Liu,  
 M. Loipersberger,  A. Luenser,  C. Malbon,  Aniket Mandal,  Manisha,  
 A. Manjanath,  P. Manohar,  E. Mansoor,  S. F. Manzer,  Shan-Ping Mao,  
 A. V. Marenich,  T. Markovich,  S. Mason,  F. Matz,  S. A. Maurer,  
 Samuel May,  Alexandra McIsaac,  P. F. McLaughlin,  M. F. S. J. Menger,  
 J.-M. Mewes,  S. A. Mewes,  P. Morgante,  Mohammad Mostafanejad,  
 Madhubani Mukherjee,  J. W. Mullinax,  Quyen Nguyen,  Avik Kumar Ojha,  
 K. J. Oosterbaan,  Eno Paenurk,  Xiaoliang Pan,  G. Paran,  V. Parravicini,  
 Alexander C. Paul,  Suranjan K. Paul,  F. Pavosevic,  Zheng Pei,  S. Prager,  
 E. I. Proynov,  E. Ramos,  B. Rana,  A. E. Rask,  A. Rettig,  R. M. Richard,  
 F. Rob,  E. Rossomme,  T. Scheele,  M. Scheurer,  M. Schneider,  
 P. E. Schneider,  Tim K. Schramm,  N. Sergueev,  S. M. Sharada,  
 Hengyuan Shen,  W. Skomorowski,  D. W. Small,  C. J. Stein,  
 Alistair J. Sterling,  Yingli Su,  Yu-Chuan Su,  E. J. Sundstrom,  
 J. Talbot,  Zhen Tao,  J. Thirman,  Hung-Yi Tsai,  T. Tsuchimochi,  
 N. M. Tubman,  C. Utku,  S. P. Veccham,  O. Vydrov,  Rahel Weiss,  
 J. Wenzel,  Jonathan Wong,  J. Witte,  H. Wu,  Yanze Wu,  A. Yamada,  
 Chou-Hsun Yang,  Kun Yao,  S. Yeganeh,  S. R. Yost,  Qi Yu,  A. Zech,  
 F. Zeller,  Chongxiao Zhao,  Igor Ying Zhang,  Xing Zhang,  Yu Zhang,  
 D. Zuev,  A. Aspuru-Guzik,  A. T. Bell,  N. A. Besley,  K. B. Bravaya,  
 B. R. Brooks,  D. Casanova,  Jeng-Da Chai,  Hsing-Ta Chen,  S. Coriani,  
 C. J. Cramer,  A. E. DePrince, III,  R. A. DiStasio Jr.,  A. Dreuw,  
 B. D. Dunietz,  T. R. Furlani,  W. A. Goddard III,  S. Grimme,  
 S. Hammes-Schiffer,  T. Head-Gordon,  W. J. Hehre,  Chao-Ping Hsu,  
 T.-C. Jagau,  Yousung Jung,  A. Klamt,  Jing Kong,  D. S. Lambrecht,  
 Xiangyuan Li,  WanZhen Liang,  N. J. Mayhall,  C. W. McCurdy,  J. B. Neaton,  
 T. Neudecker,  C. Ochsenfeld,  J. A. Parkhill,  R. Peverati,  
 V. A. Rassolov,  Haisheng Ren,  Yihan Shao,  L. V. Slipchenko,  
 R. P. Steele,  J. E. Subotnik,  A. J. W. Thom,  A. Tkatchenko,  
 D. G. Truhlar,  T. Van Voorhis,  Fan Wang,  T. A. Wesolowski,  K. B. Whaley,  
 H. L. Woodcock III,  P. M. Zimmerman,  S. Faraji,  P. M. W. Gill,  
 M. Head-Gordon,  J. M. Herbert,  A. I. Krylov

 Contributors to earlier versions of Q-Chem not listed above: 
 R. D. Adamson,  B. Austin,  R. Baer,  J. Baker,  G. J. O. Beran,  
 K. Brandhorst,  S. T. Brown,  E. F. C. Byrd,  Arup K. Chakraborty,  
 G. K. L. Chan,  Chun-Min Chang,  Yunqing Chen,  C.-L. Cheng,  
 Siu Hung Chien,  D. M. Chipman,  D. L. Crittenden,  H. Dachsel,  
 R. J. Doerksen,  A. D. Dutoi,  R. G. Edgar,  J. Fosso-Tande,  
 L. Fusti-Molnar,  D. Ghosh,  A. Ghysels,  A. Golubeva-Zadorozhnaya,  
 J. Gonthier,  M. S. Gordon,  S. R. Gwaltney,  G. Hawkins,  J. E. Herr,  
 A. Heyden,  S. Hirata,  E. G. Hohenstein,  G. Kedziora,  F. J. Keil,  
 C. Kelley,  Jihan Kim,  R. A. King,  R. Z. Khaliullin,  P. P. Korambath,  
 W. Kurlancheek,  A. Laurent,  A. M. Lee,  M. S. Lee,  S. V. Levchenko,  
 Ching Yeh Lin,  D. Liotard,  E. Livshits,  R. C. Lochan,  I. Lotan,  
 L. A. Martinez-Martinez,  P. E. Maslen,  N. Nair,  D. P. O'Neill,  
 D. Neuhauser,  E. Neuscamman,  C. M. Oana,  R. Olivares-Amaya,  R. Olson,  
 T. M. Perrine,  B. Peters,  P. A. Pieniazek,  A. Prociuk,  Y. M. Rhee,  
 J. Ritchie,  M. A. Rohrdanz,  E. Rosta,  N. J. Russ,  H. F. Schaefer III,  
 M. W. Schmidt,  N. E. Schultz,  S. Sharma,  N. Shenvi,  C. D. Sherrill,  
 A. C. Simmonett,  A. Sodt,  T. Stein,  D. Stuck,  K. S. Thanthiriwatte,  
 V. Vanovschi,  L. Vogt,  Tao Wang,  A. Warshel,  M. A. Watson,  
 C. F. Williams,  Q. Wu,  X. Xu,  Jun Yang,  W. Zhang,  Yan Zhao

   Please cite Q-Chem as follows:
  "Software for the frontiers of quantum chemistry:
   An overview of developments in the Q-Chem 5 package"
   J. Chem. Phys. 155, 084801 (2021)
   https://doi.org/10.1063/5.0055522 (open access)

 Q-Chem 6.2.2 for Intel X86 EM64T Linux

 Parts of Q-Chem use Armadillo 9.900.5 (Nocturnal Misbehaviour).
 http://arma.sourceforge.net/

 Q-Chem begins on Tue Jan 14 15:18:04 2025  

 Host: compute-0-8.local
0

     Scratch files written to /scratch/keith/A1D0_2//
 Processing $rem in /home/keith/software/qchem/qchem_622/config/preferences:
 Processing $rem in /home/keith/.qchemrc:

 Checking the input file for inconsistencies... 	...done.

--------------------------------------------------------------
User input:
--------------------------------------------------------------
$molecule
0 1
O -0.13200 1.38659 -1.07641
O -1.17880 -1.19151 -1.27571
H -0.79110 -2.04641 -1.58011
H -2.14840 -1.40751 -1.36911
H -0.11500 0.68959 -1.67301
H -0.64020 0.99959 -0.35721
O 1.86930 1.37159 0.84139
H 2.77650 1.56959 0.55139
H 1.34170 1.45659 0.07569
O -0.55040 -1.45501 1.64339
H -0.94320 -1.44671 0.76139
H 0.39080 -1.58711 1.48539
$end

$rem
method                    b3lyp 
basis                     cc-pv5z 
mem_total                 48000
mem_static                8000
thresh                    12
scf_convergence           8
xc_grid                   000075000302
max_scf_cycles            2000
symmetry                  false
sym_ignore                true
print_orbitals true
$end
gui                       2
molden_format true
--------------------------------------------------------------
 ----------------------------------------------------------------
             Standard Nuclear Orientation (Angstroms)
    I     Atom           X                Y                Z
 ----------------------------------------------------------------
    1      O      -0.1320000000     1.3865900000    -1.0764100000
    2      O      -1.1788000000    -1.1915100000    -1.2757100000
    3      H      -0.7911000000    -2.0464100000    -1.5801100000
    4      H      -2.1484000000    -1.4075100000    -1.3691100000
    5      H      -0.1150000000     0.6895900000    -1.6730100000
    6      H      -0.6402000000     0.9995900000    -0.3572100000
    7      O       1.8693000000     1.3715900000     0.8413900000
    8      H       2.7765000000     1.5695900000     0.5513900000
    9      H       1.3417000000     1.4565900000     0.0756900000
   10      O      -0.5504000000    -1.4550100000     1.6433900000
   11      H      -0.9432000000    -1.4467100000     0.7613900000
   12      H       0.3908000000    -1.5871100000     1.4853900000
 ----------------------------------------------------------------
 Nuclear Repulsion Energy =         131.94667701 hartrees
 There are       20 alpha and       20 beta electrons
 Requested basis set is cc-pV5Z
 There are 204 shells and 804 basis functions

 Total QAlloc Memory Limit  48000 MB
 Mega-Array Size      7821 MB
 MEM_STATIC part      8000 MB


                       Distance Matrix (Angstroms)
             O (  1)   O (  2)   H (  3)   H (  4)   H (  5)   H (  6)
   O (  2)  2.789643
   H (  3)  3.531801  0.986826
   H (  4)  3.458112  0.997749  1.514918
   H (  5)  0.917622  2.197284  2.819829  2.936818
   H (  6)  0.961917  2.436114  3.285783  3.015417  1.450264
   O (  7)  2.771892  4.510267  4.962269  5.362054  3.274871  2.805818
   H (  8)  3.338052  5.158136  5.508767  6.066802  3.752749  3.581102
   H (  9)  1.871904  3.897645  4.422841  4.740392  2.401711  2.079466
   O ( 10)  3.955637  2.997576  3.286129  3.410428  3.973335  3.167890
   H ( 11)  3.473204  2.066497  2.421858  2.448076  3.343052  2.706928
   H ( 12)  3.959676  3.200596  3.317399  3.824652  3.926154  3.339035
             O (  7)   H (  8)   H (  9)   O ( 10)   H ( 11)
   H (  8)  0.972788
   H (  9)  0.933747  1.515820
   O ( 10)  3.806287  4.626979  3.809874
   H ( 11)  3.982383  4.793572  3.757673  0.965549
   H ( 12)  3.369659  4.065547  3.486485  0.963469  1.524285

 A cutoff of  1.0D-12 yielded  15655 shell pairs
 There are    221775 function pairs (    374835 Cartesian)
 Smallest overlap matrix eigenvalue = 3.07E-05

 Scale SEOQF with 1.000000e-01/1.000000e-01/1.000000e-01

 Standard Electronic Orientation quadrupole field applied
 Nucleus-field energy     =     0.0000000010 hartrees
 Guess from superposition of atomic densities
 Warning:  Energy on first SCF cycle will be non-variational
 SAD guess density has 40.000000 electrons

 -----------------------------------------------------------------------
  General SCF calculation program by
  Eric Jon Sundstrom, Paul Horn, Yuezhi Mao, Dmitri Zuev, Alec White,
  David Stuck, Shaama M.S., Shane Yost, Joonho Lee, David Small,
  Daniel Levine, Susi Lehtola, Hugh Burton, Evgeny Epifanovsky,
  Bang C. Huynh
 -----------------------------------------------------------------------
 Exchange:     0.2000 Hartree-Fock + 0.0800 Slater + 0.7200 B88
 Correlation:  0.1900 VWN1RPA + 0.8100 LYP
 Using Euler-Maclaurin-Lebedev (75,302) quadrature formula
 A restricted SCF calculation will be
 performed using DIIS
 SCF converges when DIIS error is below 1.0e-08
 ---------------------------------------
  Cycle       Energy         DIIS error
 ---------------------------------------
    1    -305.7787409984      8.32e-03  
    2    -305.6386775372      2.15e-03  
    3    -305.3470781098      3.16e-03  
    4    -305.9013081710      8.84e-05  
    5    -305.9013903407      8.26e-05  
    6    -305.9017350841      1.19e-05  
    7    -305.9017419335      1.66e-06  
    8    -305.9017420262      1.13e-06  
    9    -305.9017420918      1.34e-07  
   10    -305.9017420928      2.62e-08  
   11    -305.9017420928      1.34e-08  
   12    -305.9017420928      2.36e-09  Convergence criterion met
 ---------------------------------------
 SCF time:   CPU 45126.78s  wall 1432.00s 
 SCF   energy =  -305.90174209
 Total energy =  -305.90174209

 --------------------------------------------------------------

                    Orbital Energies (a.u.)
 --------------------------------------------------------------

 Alpha MOs
 -- Occupied --
-19.1926 -19.1311 -19.1140 -19.0963  -1.0653  -1.0352  -0.9996  -0.9888
 -0.5704  -0.5449  -0.5217  -0.5112  -0.4716  -0.4062  -0.3932  -0.3688
 -0.3644  -0.3275  -0.3057  -0.2926
 -- Virtual --
 -0.0473   0.0141   0.0257   0.0427   0.0517   0.0749   0.1126   0.1385
  0.1660   0.1906   0.2018   0.2060   0.2204   0.2343   0.2420   0.2475
  0.2573   0.2639   0.2684   0.2909   0.2979   0.3020   0.3208   0.3243
  0.3426   0.3539   0.3617   0.3739   0.3976   0.4120   0.4255   0.4417
  0.4500   0.4780   0.4882   0.5168   0.5614   0.5744   0.5818   0.6005
  0.6212   0.6316   0.6423   0.6627   0.6863   0.7014   0.7118   0.7224
  0.7284   0.7484   0.7636   0.7692   0.7777   0.7898   0.8191   0.8353
  0.8422   0.8554   0.8939   0.8986   0.9114   0.9206   0.9706   0.9970
  1.0006   1.0129   1.0237   1.0435   1.0567   1.0639   1.0819   1.0920
  1.0975   1.1214   1.1447   1.1589   1.1837   1.1947   1.2021   1.2134
  1.2235   1.2388   1.2628   1.2913   1.3089   1.3321   1.3781   1.3830
  1.4030   1.4051   1.4314   1.4697   1.4843   1.4932   1.5144   1.5262
  1.5404   1.5598   1.5619   1.5831   1.5902   1.6105   1.6288   1.6439
  1.6687   1.6818   1.6876   1.6929   1.7051   1.7113   1.7412   1.7580
  1.7686   1.7761   1.7892   1.7899   1.7986   1.8117   1.8308   1.8347
  1.8441   1.8550   1.8591   1.8834   1.9071   1.9174   1.9409   1.9541
  1.9595   1.9801   2.0091   2.0210   2.0369   2.0558   2.0749   2.0920
  2.1102   2.1191   2.1485   2.1676   2.2000   2.2199   2.2413   2.2577
  2.2827   2.3106   2.3177   2.3317   2.3423   2.3634   2.3727   2.3948
  2.4150   2.4401   2.4508   2.5018   2.5192   2.5353   2.5537   2.5764
  2.6084   2.6433   2.6493   2.6696   2.6877   2.6956   2.7205   2.7275
  2.7296   2.7415   2.7673   2.7983   2.8285   2.8536   2.8708   2.8874
  2.8901   2.9126   2.9430   2.9555   2.9650   2.9844   2.9992   3.0192
  3.0370   3.0616   3.1028   3.1238   3.1290   3.1864   3.1970   3.2102
  3.2539   3.2728   3.2878   3.2995   3.3213   3.3391   3.3462   3.3750
  3.4029   3.4234   3.4478   3.4673   3.4900   3.5157   3.5243   3.5468
  3.5630   3.5843   3.6027   3.6259   3.6406   3.6541   3.6779   3.6993
  3.7108   3.7249   3.7560   3.7734   3.8030   3.8148   3.8362   3.8406
  3.8755   3.8788   3.9120   3.9208   3.9522   3.9685   3.9790   4.0361
  4.0732   4.1153   4.1277   4.1470   4.1771   4.2540   4.2850   4.2920
  4.3271   4.3717   4.3977   4.4089   4.4269   4.4325   4.4421   4.4487
  4.4619   4.4678   4.4791   4.4903   4.4977   4.5271   4.5304   4.5602
  4.5682   4.5781   4.5873   4.6001   4.6115   4.6344   4.6385   4.6530
  4.6676   4.6775   4.6911   4.6974   4.7104   4.7419   4.7481   4.7750
  4.7785   4.7971   4.8074   4.8294   4.8441   4.8592   4.8702   4.8927
  4.9062   4.9288   4.9420   4.9761   4.9906   5.0019   5.0207   5.0384
  5.0564   5.0696   5.1186   5.1279   5.1667   5.2031   5.2355   5.2674
  5.2832   5.3056   5.3464   5.3533   5.3732   5.3839   5.3878   5.4108
  5.4593   5.4919   5.5246   5.5474   5.5600   5.5688   5.6029   5.6857
  5.7162   5.7333   5.7652   5.7829   5.8437   5.8735   5.9075   5.9588
  5.9742   5.9872   6.0203   6.0616   6.0809   6.1502   6.1796   6.2163
  6.2513   6.2725   6.2942   6.3007   6.3364   6.3453   6.3583   6.3834
  6.4292   6.4451   6.4836   6.5027   6.5499   6.6245   6.6430   6.6600
  6.6655   6.6751   6.7038   6.7164   6.7416   6.7645   6.7842   6.8025
  6.8075   6.8167   6.8583   6.8654   6.8840   6.8989   6.9286   6.9507
  6.9630   6.9744   7.0130   7.0467   7.0709   7.0814   7.1267   7.1411
  7.1627   7.1779   7.2104   7.2264   7.2522   7.2923   7.2953   7.3354
  7.3690   7.3854   7.4069   7.4499   7.4571   7.4615   7.4837   7.5002
  7.5226   7.5697   7.6304   7.6359   7.6668   7.6831   7.7028   7.7480
  7.8042   7.8179   7.8573   7.8683   7.9054   7.9267   7.9865   8.0107
  8.0616   8.1174   8.1567   8.2554   8.3025   8.3069   8.3806   8.4128
  8.4454   8.6963   8.7054   8.7616   8.9061   8.9937   9.1132   9.1283
  9.1416   9.1552   9.1806   9.1861   9.2173   9.2824   9.3072   9.4070
  9.5386   9.6202   9.7472   9.7836   9.7933   9.8254   9.8396   9.8554
  9.8709   9.8856   9.9554  10.1219  11.6385  11.6952  11.7271  11.7400
 11.7502  11.7636  11.7839  11.7977  11.8067  11.8139  11.8497  11.8675
 11.8782  11.8996  11.9210  11.9236  11.9837  11.9979  12.0082  12.0192
 12.0697  12.0796  12.0852  12.1054  12.1207  12.1371  12.1542  12.1743
 12.1826  12.1841  12.1905  12.2067  12.2105  12.2258  12.2308  12.2342
 12.2409  12.2637  12.2727  12.2977  12.3046  12.3309  12.3393  12.3565
 12.3632  12.3863  12.4070  12.4130  12.4311  12.4446  12.4506  12.4628
 12.4895  12.5257  12.5446  12.5654  12.5810  12.5937  12.6075  12.6130
 12.6234  12.6513  12.6526  12.6769  12.6896  12.7344  12.7647  12.7784
 12.8045  12.8156  12.8326  12.8615  12.8796  12.8965  12.9083  12.9155
 12.9464  12.9685  13.0076  13.0554  13.0861  13.1279  13.1823  13.1996
 13.2179  13.2323  13.2409  13.2456  13.2733  13.2958  13.3412  13.3483
 13.3504  13.3584  13.3784  13.3885  13.3948  13.4151  13.4213  13.4432
 13.4486  13.4684  13.4726  13.4843  13.4952  13.5108  13.5168  13.5411
 13.5553  13.5576  13.5634  13.5940  13.5985  13.6046  13.6339  13.6362
 13.6603  13.6727  13.6899  13.6972  13.7161  13.7701  13.7887  13.8008
 13.8149  13.8318  13.8571  13.8684  13.9242  13.9570  13.9627  14.0197
 14.0320  14.0592  14.0708  14.0956  14.1312  14.1451  14.1805  14.2012
 14.2671  14.2802  14.3687  14.3717  14.4010  14.4205  14.4984  14.6215
 14.6302  14.6672  14.7030  14.7374  14.8014  14.8553  14.9482  15.1105
 15.1692  15.1968  15.3060  15.4142  15.4718  15.4846  15.5438  15.5931
 15.6238  15.6399  15.6835  15.7188  15.7543  15.7750  15.7899  15.8214
 15.8602  15.8692  15.9019  15.9165  15.9500  15.9774  16.0413  16.0601
 16.0698  16.0835  16.0922  16.1014  16.1041  16.1304  16.1378  16.1613
 16.1892  16.2060  16.2189  16.2335  16.2749  16.2816  16.3152  16.3283
 16.3358  16.3680  16.3922  16.3986  16.4462  16.5179  16.5519  16.6279
 16.6722  16.7405  16.9282  17.0081  17.0390  17.0486  17.0757  17.0895
 17.1090  17.1749  17.1962  17.2106  17.2144  17.2593  17.2882  17.3618
 17.3724  17.4102  17.4392  17.4601  17.5570  17.5637  17.5815  17.6462
 17.6580  17.7364  17.7499  17.7770  17.8280  17.8476  17.8540  17.8905
 18.0265  18.0523  18.0856  18.1319  18.1824  18.2068  18.2375  18.2415
 18.3016  18.3253  18.3827  18.3896  18.3978  18.4062  18.4278  18.4333
 18.4435  18.4843  18.4992  18.5166  18.6133  18.6560  18.6696  18.7454
 18.8230  18.8611  18.8985  18.9042  18.9369  19.0148  19.0395  19.1228
 19.1474  19.1709  19.2437  19.2915  19.3081  19.3420  19.3871  19.3928
 19.4143  19.4226  19.4648  19.4753  19.4823  19.6023  19.6108  19.6738
 19.7314  19.7401  19.7779  19.8091  19.8814  19.9110  20.0985  20.1876
 20.4747  20.5557  20.7100  20.8075  20.8957  20.9196  21.1050  21.1846
 21.8712  21.8745  21.8971  21.9242  21.9431  21.9484  22.0221  22.0492
 22.2440  22.2541  22.2725  22.2870  22.4109  22.6228  22.7328  22.8834
 22.9167  23.0326  23.0753  23.1142  23.1530  23.1968  23.2933  23.3334
 23.7987  23.8704  23.9421  23.9766  24.0595  24.2941  24.3951  24.4213
 24.5639  24.7934  24.9042  24.9205  25.0834  25.1415  25.2562  25.3098
 25.3797  26.0669  26.5406  26.7361  63.8760  64.1585  64.4232  64.6642
 --------------------------------------------------------------


                        RESTRICTED (RHF) MOLECULAR ORBITAL COEFFICIENTS
                         1         2         3         4         5         6
 eigenvalues:        -19.193   -19.131   -19.114   -19.096    -1.065    -1.035
   1  O 1   s        0.00000  -0.97863   0.00001  -0.00006   0.00268  -0.01865
   2  O 1   s        0.00002  -0.03116   0.00000  -0.00004  -0.03875   0.27860
   3  O 1   s        0.00003  -0.08540   0.00000  -0.00008  -0.00097   0.00743
   4  O 1   s        0.00002   0.01633  -0.00003   0.00065  -0.04437   0.31852
   5  O 1   s       -0.00102   0.01616   0.00024  -0.00257  -0.06163   0.43387
   6  O 1   s       -0.00165   0.00374   0.00048  -0.00264  -0.02587   0.16824
   7  O 1   px      -0.00000   0.00041  -0.00000  -0.00000   0.00136  -0.00855
   8  O 1   py       0.00000   0.00111   0.00000   0.00001   0.00383  -0.02415
   9  O 1   pz      -0.00000  -0.00011  -0.00000  -0.00001   0.00005   0.00053
  10  O 1   px      -0.00000   0.00034   0.00000  -0.00000   0.00221  -0.01377
  11  O 1   py      -0.00002   0.00067   0.00000  -0.00008   0.00619  -0.03913
  12  O 1   pz       0.00002   0.00003   0.00000   0.00005   0.00005   0.00094
  13  O 1   px       0.00005  -0.00377  -0.00002   0.00002   0.00378  -0.02444
  14  O 1   py       0.00023  -0.00948  -0.00002   0.00028   0.01070  -0.06637
  15  O 1   pz       0.00002  -0.00027   0.00002  -0.00021   0.00023   0.00152
  16  O 1   px       0.00005   0.00069  -0.00010   0.00155   0.00237  -0.01277
  17  O 1   py       0.00052  -0.00046  -0.00019   0.00191   0.00804  -0.04510
  18  O 1   pz      -0.00017   0.00007   0.00020   0.00057  -0.00049   0.00325
  19  O 1   px       0.00009   0.00031  -0.00003   0.00010   0.00048  -0.00096
  20  O 1   py       0.00029  -0.00016  -0.00004   0.00025   0.00149  -0.00571
  21  O 1   pz      -0.00017   0.00024   0.00010  -0.00007  -0.00047   0.00056
  22  O 1   d 1      0.00000  -0.00009   0.00000  -0.00000  -0.00003   0.00016
  23  O 1   d 2      0.00000  -0.00010  -0.00000  -0.00000  -0.00002   0.00014
  24  O 1   d 3     -0.00000  -0.00012  -0.00000  -0.00000  -0.00000   0.00004
  25  O 1   d 4      0.00000   0.00017  -0.00000  -0.00000   0.00002  -0.00014
  26  O 1   d 5      0.00000   0.00010  -0.00000   0.00000   0.00004  -0.00021
  27  O 1   d 1     -0.00001   0.00018  -0.00001   0.00002  -0.00017   0.00092
  28  O 1   d 2     -0.00001   0.00018   0.00001   0.00001  -0.00017   0.00093
  29  O 1   d 3      0.00000   0.00017   0.00000   0.00002  -0.00011   0.00084
  30  O 1   d 4     -0.00000  -0.00028   0.00000  -0.00001   0.00021  -0.00146
  31  O 1   d 5     -0.00000  -0.00018   0.00000  -0.00001   0.00021  -0.00124
  32  O 1   d 1     -0.00000   0.00068   0.00004  -0.00015  -0.00073   0.00452
  33  O 1   d 2     -0.00003   0.00134  -0.00005  -0.00007  -0.00063   0.00409
  34  O 1   d 3     -0.00005   0.00167   0.00002  -0.00019  -0.00031   0.00352
  35  O 1   d 4      0.00004  -0.00211  -0.00003   0.00007   0.00090  -0.00672
  36  O 1   d 5      0.00008  -0.00126  -0.00000   0.00011   0.00101  -0.00549
  37  O 1   d 1     -0.00003  -0.00094   0.00004  -0.00041  -0.00042   0.00220
  38  O 1   d 2      0.00003  -0.00013  -0.00013  -0.00030  -0.00021   0.00246
  39  O 1   d 3     -0.00012   0.00058   0.00002  -0.00018  -0.00003   0.00265
  40  O 1   d 4      0.00007   0.00047   0.00001   0.00063   0.00024  -0.00225
  41  O 1   d 5      0.00007   0.00086  -0.00000   0.00068   0.00046  -0.00177
  42  O 1   f 1      0.00000  -0.00003   0.00000  -0.00000  -0.00000   0.00001
  43  O 1   f 2     -0.00000  -0.00008  -0.00000  -0.00000  -0.00000   0.00001
  44  O 1   f 3     -0.00000   0.00012   0.00000  -0.00001   0.00001  -0.00007
  45  O 1   f 4      0.00000  -0.00004   0.00000   0.00000  -0.00001   0.00002
  46  O 1   f 5     -0.00000   0.00006   0.00000   0.00000   0.00000  -0.00001
  47  O 1   f 6      0.00000  -0.00011   0.00000   0.00001  -0.00001   0.00007
  48  O 1   f 7     -0.00000  -0.00000  -0.00000   0.00000  -0.00000  -0.00001
  49  O 1   f 1     -0.00001   0.00018  -0.00000   0.00001  -0.00008   0.00044
  50  O 1   f 2      0.00000   0.00063   0.00001   0.00002  -0.00020   0.00132
  51  O 1   f 3      0.00001  -0.00095  -0.00001   0.00005   0.00024  -0.00173
  52  O 1   f 4     -0.00001   0.00025  -0.00000  -0.00001  -0.00006   0.00047
  53  O 1   f 5      0.00002  -0.00051  -0.00000   0.00001   0.00012  -0.00103
  54  O 1   f 6     -0.00001   0.00087  -0.00001  -0.00004  -0.00027   0.00181
  55  O 1   f 7      0.00000   0.00003   0.00000  -0.00002  -0.00007   0.00033
  56  O 1   f 1     -0.00001  -0.00016  -0.00002  -0.00014  -0.00007   0.00046
  57  O 1   f 2     -0.00001  -0.00024   0.00002  -0.00008  -0.00024   0.00168
  58  O 1   f 3      0.00002  -0.00008  -0.00004   0.00013   0.00027  -0.00234
  59  O 1   f 4     -0.00004  -0.00002  -0.00004  -0.00003  -0.00002   0.00036
  60  O 1   f 5      0.00003   0.00010   0.00003   0.00020   0.00006  -0.00082
  61  O 1   f 6     -0.00000  -0.00019  -0.00004  -0.00006  -0.00036   0.00302
  62  O 1   f 7     -0.00002  -0.00028   0.00002  -0.00006  -0.00008   0.00071
  63  O 1   g 1     -0.00000   0.00000  -0.00000  -0.00000   0.00000   0.00002
  64  O 1   g 2      0.00000  -0.00012  -0.00000  -0.00000   0.00002  -0.00017
  65  O 1   g 3      0.00000   0.00007   0.00000   0.00000  -0.00001   0.00011
  66  O 1   g 4      0.00000  -0.00002  -0.00000   0.00001   0.00001  -0.00005
  67  O 1   g 5      0.00000  -0.00009   0.00000  -0.00000   0.00002  -0.00013
  68  O 1   g 6      0.00000  -0.00004  -0.00000  -0.00001   0.00000  -0.00003
  69  O 1   g 7      0.00000  -0.00004   0.00000   0.00000   0.00001  -0.00010
  70  O 1   g 8      0.00000   0.00003  -0.00000   0.00001  -0.00000   0.00002
  71  O 1   g 9     -0.00000   0.00001  -0.00000   0.00001  -0.00000   0.00002
  72  O 1   g 1      0.00001   0.00007  -0.00000   0.00002  -0.00001  -0.00001
  73  O 1   g 2      0.00000  -0.00009   0.00001   0.00004   0.00015  -0.00100
  74  O 1   g 3     -0.00002   0.00004  -0.00000  -0.00004  -0.00009   0.00055
  75  O 1   g 4      0.00002  -0.00000   0.00001  -0.00001   0.00004  -0.00026
  76  O 1   g 5     -0.00001  -0.00009  -0.00001   0.00003   0.00012  -0.00076
  77  O 1   g 6      0.00000  -0.00004   0.00000   0.00004  -0.00001  -0.00013
  78  O 1   g 7     -0.00000  -0.00013  -0.00001  -0.00000   0.00006  -0.00032
  79  O 1   g 8      0.00000   0.00001   0.00001  -0.00001  -0.00004   0.00031
  80  O 1   g 9     -0.00000   0.00003  -0.00001  -0.00003  -0.00003   0.00017
  81  O 1   h 1      0.00000  -0.00002   0.00000   0.00000   0.00001  -0.00003
  82  O 1   h 2     -0.00000   0.00001  -0.00000   0.00000  -0.00000   0.00003
  83  O 1   h 3      0.00000   0.00003   0.00000   0.00000  -0.00000   0.00001
  84  O 1   h 4      0.00000   0.00005   0.00000  -0.00001  -0.00000   0.00009
  85  O 1   h 5      0.00000   0.00004   0.00000  -0.00000  -0.00002   0.00012
  86  O 1   h 6      0.00000   0.00000   0.00000   0.00001   0.00001  -0.00004
  87  O 1   h 7     -0.00000   0.00000  -0.00000   0.00001  -0.00001   0.00003
  88  O 1   h 8      0.00000   0.00005   0.00000  -0.00000  -0.00000   0.00004
  89  O 1   h 9     -0.00000   0.00001  -0.00000  -0.00001  -0.00001   0.00006
  90  O 1   h10      0.00000  -0.00007   0.00000   0.00000   0.00003  -0.00016
  91  O 1   h11      0.00000   0.00002   0.00000  -0.00000  -0.00000   0.00002
  92  O 2   s        0.97829  -0.00002   0.00001  -0.00000   0.01841   0.00268
  93  O 2   s        0.03064  -0.00001   0.00000  -0.00000  -0.28351  -0.04206
  94  O 2   s        0.08462  -0.00001   0.00001   0.00000  -0.00783  -0.00116
  95  O 2   s       -0.01473  -0.00001  -0.00025  -0.00001  -0.32519  -0.04825
  96  O 2   s       -0.00890   0.00012   0.00132   0.00005  -0.44562  -0.06725
  97  O 2   s       -0.00394   0.00020   0.00078   0.00026  -0.17710  -0.02460
  98  O 2   px      -0.00053  -0.00000  -0.00000   0.00000   0.00998   0.00212
  99  O 2   py      -0.00101  -0.00000  -0.00000  -0.00000   0.01993   0.00442
 100  O 2   pz      -0.00033   0.00000   0.00000   0.00000   0.00695   0.00121
 101  O 2   px      -0.00030  -0.00000   0.00001  -0.00001   0.01609   0.00346
 102  O 2   py      -0.00058   0.00001   0.00004   0.00000   0.03223   0.00720
 103  O 2   pz      -0.00030  -0.00001   0.00000  -0.00000   0.01114   0.00196
 104  O 2   px       0.00338   0.00009  -0.00002   0.00004   0.02859   0.00548
 105  O 2   py       0.00696  -0.00003  -0.00021  -0.00001   0.05634   0.01143
 106  O 2   pz       0.00274   0.00002   0.00002   0.00000   0.02009   0.00336
 107  O 2   px      -0.00020  -0.00048  -0.00024   0.00008   0.01916   0.00446
 108  O 2   py       0.00039  -0.00029  -0.00047  -0.00020   0.03690   0.01050
 109  O 2   pz      -0.00069   0.00005  -0.00093  -0.00004   0.01115   0.00226
 110  O 2   px       0.00029  -0.00033   0.00003   0.00009   0.00301   0.00013
 111  O 2   py       0.00050  -0.00033  -0.00001  -0.00002   0.00576   0.00109
 112  O 2   pz      -0.00044   0.00019  -0.00005  -0.00002   0.00037   0.00009
 113  O 2   d 1     -0.00006   0.00000  -0.00000  -0.00000  -0.00004   0.00000
 114  O 2   d 2      0.00012   0.00001   0.00000   0.00000  -0.00016  -0.00003
 115  O 2   d 3     -0.00020  -0.00000   0.00000   0.00000   0.00021   0.00003
 116  O 2   d 4     -0.00001   0.00000   0.00000  -0.00000  -0.00002  -0.00000
 117  O 2   d 5      0.00006  -0.00000   0.00000   0.00000   0.00002  -0.00000
 118  O 2   d 1      0.00008  -0.00001   0.00001   0.00000   0.00020   0.00008
 119  O 2   d 2     -0.00020  -0.00002  -0.00002  -0.00000  -0.00114  -0.00018
 120  O 2   d 3      0.00030   0.00001  -0.00000  -0.00000   0.00177   0.00025
 121  O 2   d 4      0.00002  -0.00002  -0.00001   0.00000   0.00005   0.00001
 122  O 2   d 5     -0.00008   0.00002  -0.00001  -0.00000  -0.00024  -0.00009
 123  O 2   d 1      0.00068   0.00003  -0.00009  -0.00001   0.00115   0.00016
 124  O 2   d 2     -0.00115   0.00008   0.00013   0.00001  -0.00580  -0.00095
 125  O 2   d 3      0.00206  -0.00002  -0.00002   0.00000   0.00897   0.00137
 126  O 2   d 4      0.00021   0.00005   0.00004  -0.00001   0.00009  -0.00001
 127  O 2   d 5     -0.00054  -0.00013   0.00004  -0.00001  -0.00166  -0.00016
 128  O 2   d 1     -0.00019   0.00024  -0.00006  -0.00001   0.00043   0.00065
 129  O 2   d 2      0.00075  -0.00012   0.00033   0.00002  -0.00249  -0.00049
 130  O 2   d 3     -0.00099  -0.00001  -0.00037  -0.00004   0.00443   0.00043
 131  O 2   d 4      0.00004   0.00006   0.00009  -0.00001   0.00055  -0.00004
 132  O 2   d 5      0.00041   0.00010   0.00011  -0.00004  -0.00097  -0.00042
 133  O 2   f 1     -0.00003  -0.00000  -0.00000  -0.00000  -0.00000  -0.00000
 134  O 2   f 2      0.00004  -0.00001  -0.00000   0.00000  -0.00001  -0.00000
 135  O 2   f 3      0.00006   0.00000   0.00000  -0.00000   0.00002  -0.00000
 136  O 2   f 4      0.00004   0.00000  -0.00000  -0.00000   0.00000  -0.00000
 137  O 2   f 5      0.00004   0.00000  -0.00000   0.00000   0.00001  -0.00000
 138  O 2   f 6      0.00002   0.00000   0.00000   0.00000   0.00001  -0.00000
 139  O 2   f 7     -0.00014  -0.00000   0.00000  -0.00000   0.00002  -0.00000
 140  O 2   f 1      0.00022   0.00000  -0.00000   0.00000   0.00049   0.00009
 141  O 2   f 2     -0.00029   0.00003   0.00001   0.00000  -0.00053  -0.00007
 142  O 2   f 3     -0.00038  -0.00000  -0.00001   0.00000  -0.00091  -0.00014
 143  O 2   f 4     -0.00038  -0.00001   0.00003   0.00000  -0.00111  -0.00017
 144  O 2   f 5     -0.00034  -0.00002   0.00001  -0.00000  -0.00088  -0.00013
 145  O 2   f 6     -0.00017  -0.00001  -0.00001   0.00000  -0.00050  -0.00008
 146  O 2   f 7      0.00103   0.00000  -0.00002   0.00000   0.00221   0.00035
 147  O 2   f 1     -0.00012   0.00005  -0.00002  -0.00002   0.00078  -0.00004
 148  O 2   f 2      0.00014  -0.00013   0.00002   0.00000  -0.00065  -0.00004
 149  O 2   f 3      0.00025   0.00004   0.00003   0.00001  -0.00078  -0.00042
 150  O 2   f 4      0.00021   0.00005   0.00005  -0.00000  -0.00184  -0.00038
 151  O 2   f 5      0.00023   0.00002   0.00001   0.00000  -0.00116  -0.00029
 152  O 2   f 6      0.00009   0.00005  -0.00000   0.00001  -0.00046  -0.00019
 153  O 2   f 7     -0.00045   0.00005  -0.00007   0.00000   0.00344   0.00022
 154  O 2   g 1     -0.00012  -0.00000   0.00000  -0.00000  -0.00017  -0.00002
 155  O 2   g 2      0.00000  -0.00000  -0.00000  -0.00000   0.00001   0.00000
 156  O 2   g 3      0.00001  -0.00000  -0.00000   0.00000   0.00001   0.00000
 157  O 2   g 4      0.00007  -0.00000   0.00000   0.00000   0.00006   0.00001
 158  O 2   g 5     -0.00004  -0.00000   0.00000  -0.00000  -0.00004  -0.00001
 159  O 2   g 6     -0.00000   0.00000   0.00000   0.00000   0.00000  -0.00000
 160  O 2   g 7      0.00004   0.00000   0.00000   0.00000   0.00004   0.00000
 161  O 2   g 8     -0.00007  -0.00000  -0.00000   0.00000  -0.00009  -0.00001
 162  O 2   g 9     -0.00004  -0.00000   0.00000   0.00000  -0.00005  -0.00001
 163  O 2   g 1     -0.00004   0.00001  -0.00001   0.00000  -0.00105  -0.00022
 164  O 2   g 2      0.00000  -0.00000   0.00001   0.00000   0.00007   0.00002
 165  O 2   g 3     -0.00001   0.00001  -0.00000  -0.00000   0.00015   0.00001
 166  O 2   g 4     -0.00001  -0.00000  -0.00002  -0.00000   0.00058   0.00010
 167  O 2   g 5     -0.00001   0.00000  -0.00003   0.00000  -0.00039  -0.00006
 168  O 2   g 6     -0.00002  -0.00001  -0.00002   0.00000   0.00002   0.00001
 169  O 2   g 7     -0.00000   0.00001  -0.00001  -0.00000   0.00030   0.00005
 170  O 2   g 8     -0.00002   0.00000   0.00004  -0.00000  -0.00061  -0.00009
 171  O 2   g 9     -0.00000   0.00001   0.00000  -0.00000  -0.00034  -0.00006
 172  O 2   h 1      0.00002  -0.00000   0.00000  -0.00000   0.00009   0.00002
 173  O 2   h 2      0.00005  -0.00000  -0.00001   0.00000   0.00015   0.00002
 174  O 2   h 3     -0.00002  -0.00000   0.00000   0.00000  -0.00006  -0.00001
 175  O 2   h 4      0.00002   0.00000  -0.00000  -0.00000   0.00004   0.00000
 176  O 2   h 5      0.00000   0.00000   0.00000  -0.00000   0.00001   0.00000
 177  O 2   h 6      0.00003  -0.00000  -0.00001   0.00000   0.00011   0.00002
 178  O 2   h 7      0.00003   0.00000   0.00000  -0.00000   0.00008   0.00001
 179  O 2   h 8      0.00001  -0.00000   0.00000  -0.00000   0.00003   0.00001
 180  O 2   h 9     -0.00003   0.00000  -0.00000  -0.00000  -0.00007  -0.00001
 181  O 2   h10      0.00000  -0.00000  -0.00000   0.00000   0.00002   0.00001
 182  O 2   h11     -0.00001   0.00000  -0.00000   0.00000  -0.00006  -0.00002
 183  H 1   s       -0.00016   0.00000   0.00001  -0.00000  -0.02258  -0.00366
 184  H 1   s       -0.00152   0.00000   0.00002   0.00002  -0.05156  -0.00843
 185  H 1   s        0.00720   0.00008  -0.00092  -0.00016  -0.06034  -0.00916
 186  H 1   s        0.00223   0.00003  -0.00045  -0.00026  -0.01470  -0.00261
 187  H 1   s        0.00007  -0.00002  -0.00002   0.00000  -0.00181  -0.00034
 188  H 1   px       0.00008  -0.00000   0.00000   0.00000   0.00082   0.00013
 189  H 1   py      -0.00017   0.00000   0.00000   0.00000  -0.00148  -0.00023
 190  H 1   pz      -0.00005  -0.00000   0.00001  -0.00000  -0.00053  -0.00008
 191  H 1   px      -0.00003  -0.00000  -0.00001  -0.00001   0.00252   0.00046
 192  H 1   py      -0.00001  -0.00002   0.00001   0.00000  -0.00466  -0.00072
 193  H 1   pz      -0.00005   0.00000  -0.00004   0.00000  -0.00167  -0.00027
 194  H 1   px      -0.00243   0.00016   0.00018   0.00003   0.00424   0.00033
 195  H 1   py       0.00559   0.00006  -0.00043  -0.00005  -0.00451  -0.00063
 196  H 1   pz       0.00214  -0.00006   0.00007  -0.00003  -0.00173  -0.00016
 197  H 1   px      -0.00094   0.00014   0.00008   0.00002   0.00109   0.00021
 198  H 1   py       0.00184   0.00011  -0.00031  -0.00012  -0.00008   0.00018
 199  H 1   pz       0.00102  -0.00007  -0.00001  -0.00006   0.00042   0.00021
 200  H 1   d 1      0.00013  -0.00001  -0.00000  -0.00000   0.00050   0.00009
 201  H 1   d 2     -0.00011   0.00000  -0.00000  -0.00000  -0.00034  -0.00005
 202  H 1   d 3      0.00008  -0.00000  -0.00001  -0.00000   0.00029   0.00005
 203  H 1   d 4      0.00004   0.00000  -0.00000   0.00000   0.00017   0.00003
 204  H 1   d 5      0.00014   0.00001  -0.00000   0.00000   0.00033   0.00004
 205  H 1   d 1     -0.00133   0.00005   0.00004   0.00000   0.00038   0.00003
 206  H 1   d 2      0.00109  -0.00002   0.00000  -0.00000  -0.00027  -0.00005
 207  H 1   d 3     -0.00083   0.00001   0.00005   0.00000   0.00027   0.00003
 208  H 1   d 4     -0.00046   0.00000   0.00000   0.00000   0.00018  -0.00001
 209  H 1   d 5     -0.00127  -0.00004   0.00005   0.00000   0.00008   0.00008
 210  H 1   d 1     -0.00164   0.00007   0.00005   0.00001   0.00035   0.00002
 211  H 1   d 2      0.00137  -0.00003  -0.00001  -0.00003   0.00002   0.00007
 212  H 1   d 3     -0.00076  -0.00000   0.00015   0.00000   0.00030   0.00006
 213  H 1   d 4     -0.00067   0.00006  -0.00004   0.00001   0.00003  -0.00004
 214  H 1   d 5     -0.00136  -0.00007   0.00009   0.00002  -0.00051   0.00003
 215  H 1   f 1     -0.00007  -0.00000   0.00000  -0.00000  -0.00000   0.00000
 216  H 1   f 2     -0.00010   0.00000  -0.00000   0.00000   0.00006   0.00001
 217  H 1   f 3     -0.00008  -0.00000   0.00001   0.00000   0.00004   0.00001
 218  H 1   f 4     -0.00012   0.00000  -0.00000  -0.00000   0.00005   0.00001
 219  H 1   f 5      0.00003  -0.00000  -0.00000  -0.00000  -0.00003  -0.00000
 220  H 1   f 6     -0.00010  -0.00000  -0.00000  -0.00000   0.00004   0.00001
 221  H 1   f 7      0.00018  -0.00000  -0.00001  -0.00000  -0.00007  -0.00001
 222  H 1   f 1     -0.00027  -0.00003   0.00002   0.00000   0.00001   0.00005
 223  H 1   f 2     -0.00060   0.00002  -0.00001  -0.00000   0.00001  -0.00001
 224  H 1   f 3     -0.00035   0.00000   0.00004  -0.00000   0.00006   0.00003
 225  H 1   f 4     -0.00055   0.00000   0.00002   0.00000   0.00010   0.00000
 226  H 1   f 5      0.00016  -0.00001  -0.00002   0.00000  -0.00004  -0.00001
 227  H 1   f 6     -0.00054   0.00001   0.00002   0.00000   0.00006   0.00003
 228  H 1   f 7      0.00092  -0.00001  -0.00001  -0.00000   0.00001  -0.00004
 229  H 1   g 1      0.00013   0.00000  -0.00000  -0.00000  -0.00003  -0.00001
 230  H 1   g 2     -0.00004   0.00000   0.00000   0.00000   0.00001   0.00000
 231  H 1   g 3      0.00002  -0.00000  -0.00000  -0.00000  -0.00001  -0.00000
 232  H 1   g 4     -0.00012  -0.00000   0.00000   0.00000   0.00004   0.00001
 233  H 1   g 5      0.00001   0.00000  -0.00000   0.00000  -0.00001  -0.00000
 234  H 1   g 6      0.00004  -0.00000  -0.00000  -0.00000  -0.00002  -0.00000
 235  H 1   g 7      0.00002   0.00000  -0.00000   0.00000  -0.00000  -0.00000
 236  H 1   g 8      0.00012  -0.00000   0.00000  -0.00000  -0.00003  -0.00001
 237  H 1   g 9     -0.00002   0.00000  -0.00000  -0.00000   0.00001  -0.00000
 238  H 2   s       -0.00013  -0.00000   0.00000  -0.00000  -0.02181  -0.00351
 239  H 2   s       -0.00153   0.00001   0.00003  -0.00001  -0.05011  -0.00812
 240  H 2   s        0.00615  -0.00025  -0.00080   0.00003  -0.05855  -0.00953
 241  H 2   s        0.00240  -0.00047  -0.00015   0.00005  -0.01245  -0.00366
 242  H 2   s        0.00005   0.00003   0.00005   0.00001  -0.00190  -0.00033
 243  H 2   px      -0.00017  -0.00000  -0.00000  -0.00000  -0.00168  -0.00026
 244  H 2   py      -0.00004   0.00000  -0.00000   0.00000  -0.00024  -0.00003
 245  H 2   pz      -0.00001  -0.00000   0.00001   0.00000  -0.00011  -0.00002
 246  H 2   px      -0.00010   0.00002   0.00002  -0.00000  -0.00541  -0.00086
 247  H 2   py      -0.00004  -0.00001   0.00001  -0.00001  -0.00081  -0.00008
 248  H 2   pz      -0.00006   0.00000  -0.00003  -0.00000  -0.00044  -0.00005
 249  H 2   px       0.00566  -0.00005  -0.00034   0.00002  -0.00609  -0.00100
 250  H 2   py       0.00133   0.00007  -0.00011   0.00005   0.00060  -0.00008
 251  H 2   pz       0.00068   0.00005   0.00018  -0.00001  -0.00001  -0.00008
 252  H 2   px       0.00215  -0.00013  -0.00011   0.00001   0.00024  -0.00043
 253  H 2   py       0.00037   0.00014  -0.00010   0.00002   0.00102   0.00013
 254  H 2   pz       0.00055  -0.00013   0.00016   0.00001   0.00081   0.00001
 255  H 2   d 1     -0.00011  -0.00000   0.00000  -0.00000  -0.00021  -0.00002
 256  H 2   d 2     -0.00001   0.00000   0.00000   0.00000  -0.00002  -0.00000
 257  H 2   d 3      0.00011  -0.00000  -0.00001   0.00000   0.00037   0.00006
 258  H 2   d 4     -0.00004  -0.00001  -0.00000   0.00000  -0.00008  -0.00001
 259  H 2   d 5     -0.00019  -0.00000   0.00000  -0.00000  -0.00062  -0.00010
 260  H 2   d 1      0.00086   0.00001  -0.00003   0.00001   0.00003  -0.00007
 261  H 2   d 2      0.00008  -0.00000   0.00000  -0.00000  -0.00006  -0.00001
 262  H 2   d 3     -0.00105   0.00001   0.00004  -0.00001   0.00033   0.00005
 263  H 2   d 4      0.00033   0.00005   0.00004  -0.00000  -0.00010  -0.00002
 264  H 2   d 5      0.00167   0.00002  -0.00004   0.00000  -0.00043  -0.00008
 265  H 2   d 1      0.00089   0.00009  -0.00008   0.00003   0.00065  -0.00006
 266  H 2   d 2      0.00007  -0.00002   0.00001   0.00000  -0.00006  -0.00002
 267  H 2   d 3     -0.00115  -0.00004   0.00008   0.00000   0.00013   0.00004
 268  H 2   d 4      0.00061  -0.00004   0.00013   0.00000   0.00032  -0.00003
 269  H 2   d 5      0.00208  -0.00004  -0.00003  -0.00000  -0.00001  -0.00011
 270  H 2   f 1      0.00013   0.00000  -0.00000   0.00000  -0.00003  -0.00000
 271  H 2   f 2      0.00002   0.00000   0.00000  -0.00000  -0.00002  -0.00000
 272  H 2   f 3     -0.00004   0.00000  -0.00000  -0.00000   0.00001   0.00000
 273  H 2   f 4     -0.00005  -0.00000  -0.00000   0.00000   0.00001   0.00000
 274  H 2   f 5     -0.00015   0.00000   0.00001  -0.00000   0.00007   0.00001
 275  H 2   f 6      0.00004   0.00000   0.00001  -0.00000  -0.00001  -0.00000
 276  H 2   f 7      0.00015   0.00000  -0.00000  -0.00000  -0.00007  -0.00001
 277  H 2   f 1      0.00067   0.00003  -0.00003   0.00001   0.00002  -0.00008
 278  H 2   f 2      0.00013  -0.00002   0.00000   0.00000  -0.00005  -0.00002
 279  H 2   f 3     -0.00018  -0.00001   0.00001  -0.00000   0.00001   0.00002
 280  H 2   f 4     -0.00021   0.00000  -0.00002   0.00000   0.00004   0.00001
 281  H 2   f 5     -0.00076  -0.00001   0.00001  -0.00000   0.00007   0.00002
 282  H 2   f 6      0.00027   0.00001   0.00002  -0.00000   0.00001  -0.00001
 283  H 2   f 7      0.00087  -0.00001   0.00000   0.00000   0.00004  -0.00003
 284  H 2   g 1      0.00013   0.00000  -0.00000   0.00000  -0.00002  -0.00001
 285  H 2   g 2      0.00003  -0.00000   0.00000  -0.00000  -0.00001  -0.00000
 286  H 2   g 3     -0.00006  -0.00000   0.00000  -0.00000   0.00000   0.00000
 287  H 2   g 4     -0.00002   0.00000  -0.00000   0.00000   0.00000   0.00000
 288  H 2   g 5      0.00008   0.00000  -0.00000   0.00000  -0.00002  -0.00000
 289  H 2   g 6     -0.00006  -0.00000  -0.00000   0.00000   0.00001   0.00000
 290  H 2   g 7     -0.00011   0.00000   0.00000  -0.00000   0.00003   0.00001
 291  H 2   g 8      0.00004   0.00000   0.00000  -0.00000  -0.00000  -0.00000
 292  H 2   g 9      0.00011  -0.00000   0.00000  -0.00000  -0.00002  -0.00000
 293  H 3   s        0.00000   0.00034   0.00000  -0.00001  -0.00415   0.02611
 294  H 3   s       -0.00008   0.00045  -0.00001   0.00004  -0.00890   0.05746
 295  H 3   s        0.00059  -0.01112   0.00016   0.00239  -0.01023   0.06119
 296  H 3   s        0.00099  -0.00252  -0.00018   0.00093  -0.00075   0.01163
 297  H 3   s       -0.00036   0.00011   0.00003  -0.00007  -0.00122   0.00237
 298  H 3   px       0.00000  -0.00001   0.00000  -0.00001   0.00004  -0.00010
 299  H 3   py      -0.00000   0.00021  -0.00000  -0.00000  -0.00017   0.00152
 300  H 3   pz      -0.00000   0.00017   0.00000  -0.00000  -0.00022   0.00148
 301  H 3   px      -0.00001   0.00006  -0.00000   0.00007   0.00003  -0.00037
 302  H 3   py      -0.00000  -0.00067   0.00001   0.00004  -0.00065   0.00424
 303  H 3   pz      -0.00001  -0.00062  -0.00000   0.00003  -0.00062   0.00417
 304  H 3   px      -0.00001  -0.00025  -0.00002  -0.00034   0.00063  -0.00066
 305  H 3   py       0.00025  -0.00712  -0.00004   0.00052   0.00060   0.00360
 306  H 3   pz       0.00028  -0.00523   0.00009   0.00054  -0.00050   0.00467
 307  H 3   px       0.00000  -0.00057   0.00005  -0.00023   0.00014   0.00008
 308  H 3   py       0.00022  -0.00271   0.00005   0.00033   0.00099  -0.00044
 309  H 3   pz       0.00024  -0.00178  -0.00008   0.00025   0.00091  -0.00028
 310  H 3   d 1      0.00001   0.00001   0.00000   0.00001   0.00004  -0.00007
 311  H 3   d 2     -0.00000   0.00003   0.00000   0.00000  -0.00013   0.00073
 312  H 3   d 3     -0.00000  -0.00002  -0.00000  -0.00000  -0.00005   0.00021
 313  H 3   d 4      0.00001   0.00001   0.00000   0.00000   0.00000  -0.00007
 314  H 3   d 5      0.00000  -0.00003   0.00000  -0.00000   0.00005  -0.00036
 315  H 3   d 1     -0.00006   0.00000  -0.00001  -0.00005  -0.00017   0.00007
 316  H 3   d 2      0.00005  -0.00236  -0.00000   0.00007   0.00002   0.00063
 317  H 3   d 3      0.00005  -0.00019   0.00003   0.00004   0.00008   0.00008
 318  H 3   d 4     -0.00004  -0.00000  -0.00002  -0.00002   0.00007  -0.00011
 319  H 3   d 5     -0.00001   0.00149   0.00001  -0.00004   0.00010  -0.00046
 320  H 3   d 1      0.00011  -0.00007  -0.00001  -0.00014  -0.00015  -0.00051
 321  H 3   d 2      0.00016  -0.00289   0.00003  -0.00005   0.00031   0.00030
 322  H 3   d 3     -0.00002  -0.00022   0.00001   0.00000   0.00026   0.00043
 323  H 3   d 4      0.00006  -0.00030   0.00003  -0.00022   0.00009  -0.00012
 324  H 3   d 5     -0.00010   0.00177   0.00002  -0.00009   0.00009   0.00015
 325  H 3   f 1      0.00000   0.00012   0.00000   0.00000   0.00002  -0.00009
 326  H 3   f 2     -0.00000   0.00001   0.00000  -0.00000  -0.00000  -0.00002
 327  H 3   f 3      0.00000  -0.00014   0.00000   0.00001  -0.00003   0.00015
 328  H 3   f 4      0.00000   0.00011   0.00000  -0.00000   0.00001  -0.00006
 329  H 3   f 5     -0.00001  -0.00001  -0.00000  -0.00000   0.00000  -0.00003
 330  H 3   f 6      0.00000   0.00024   0.00000  -0.00000   0.00003  -0.00018
 331  H 3   f 7     -0.00000   0.00001   0.00000   0.00000  -0.00001   0.00002
 332  H 3   f 1     -0.00002   0.00051   0.00000  -0.00003  -0.00000  -0.00011
 333  H 3   f 2     -0.00001  -0.00003  -0.00001  -0.00006  -0.00001  -0.00004
 334  H 3   f 3      0.00005  -0.00071   0.00001  -0.00005   0.00002   0.00002
 335  H 3   f 4     -0.00001   0.00046   0.00001   0.00003   0.00003  -0.00011
 336  H 3   f 5      0.00002  -0.00004   0.00001  -0.00003   0.00000   0.00002
 337  H 3   f 6     -0.00003   0.00106   0.00000  -0.00001   0.00000  -0.00022
 338  H 3   f 7      0.00003  -0.00000   0.00001   0.00002  -0.00007  -0.00005
 339  H 3   g 1      0.00000   0.00001   0.00000   0.00000   0.00001   0.00001
 340  H 3   g 2     -0.00000   0.00008   0.00000  -0.00000   0.00001  -0.00010
 341  H 3   g 3     -0.00000  -0.00001  -0.00000  -0.00001   0.00001  -0.00002
 342  H 3   g 4      0.00000   0.00001   0.00000  -0.00000  -0.00000   0.00000
 343  H 3   g 5     -0.00000   0.00006   0.00000   0.00001   0.00000  -0.00007
 344  H 3   g 6      0.00000  -0.00001   0.00000  -0.00000   0.00000  -0.00001
 345  H 3   g 7     -0.00000   0.00008  -0.00000   0.00000   0.00001  -0.00011
 346  H 3   g 8      0.00000   0.00000   0.00000   0.00001  -0.00000   0.00001
 347  H 3   g 9     -0.00000  -0.00003  -0.00000   0.00000  -0.00000   0.00004
 348  H 4   s       -0.00000   0.00021  -0.00000  -0.00002  -0.00340   0.02293
 349  H 4   s       -0.00002   0.00134   0.00003   0.00008  -0.00756   0.05154
 350  H 4   s        0.00048  -0.00944  -0.00032   0.00171  -0.00902   0.05973
 351  H 4   s        0.00108  -0.00175  -0.00040   0.00095   0.00016   0.01316
 352  H 4   s       -0.00003  -0.00006  -0.00001  -0.00001  -0.00050   0.00214
 353  H 4   px      -0.00000   0.00010   0.00000  -0.00001  -0.00012   0.00096
 354  H 4   py      -0.00000   0.00009   0.00000  -0.00001  -0.00004   0.00060
 355  H 4   pz       0.00000  -0.00018   0.00000  -0.00000   0.00021  -0.00143
 356  H 4   px      -0.00000  -0.00006   0.00000   0.00006  -0.00046   0.00297
 357  H 4   py       0.00001  -0.00005  -0.00001   0.00004  -0.00031   0.00187
 358  H 4   pz      -0.00001   0.00024  -0.00001  -0.00001   0.00067  -0.00441
 359  H 4   px       0.00021  -0.00434  -0.00010   0.00032  -0.00034   0.00349
 360  H 4   py       0.00012  -0.00347   0.00006   0.00018   0.00013   0.00101
 361  H 4   pz      -0.00012   0.00532   0.00015  -0.00059   0.00067  -0.00550
 362  H 4   px       0.00029  -0.00153  -0.00019   0.00018   0.00097   0.00005
 363  H 4   py       0.00004  -0.00143  -0.00007   0.00017   0.00085  -0.00012
 364  H 4   pz      -0.00025   0.00145   0.00015  -0.00038  -0.00063  -0.00132
 365  H 4   d 1      0.00000   0.00008   0.00000   0.00001  -0.00002   0.00022
 366  H 4   d 2      0.00001  -0.00011   0.00000  -0.00001   0.00004  -0.00034
 367  H 4   d 3     -0.00001   0.00004  -0.00000   0.00000  -0.00006   0.00034
 368  H 4   d 4     -0.00000  -0.00011  -0.00000   0.00001   0.00008  -0.00054
 369  H 4   d 5     -0.00001   0.00002  -0.00001   0.00001  -0.00001   0.00013
 370  H 4   d 1      0.00001  -0.00101  -0.00001   0.00003  -0.00011   0.00033
 371  H 4   d 2     -0.00005   0.00141  -0.00001  -0.00003   0.00009  -0.00018
 372  H 4   d 3      0.00002  -0.00076  -0.00000   0.00001   0.00001   0.00021
 373  H 4   d 4     -0.00003   0.00172   0.00003  -0.00011   0.00011  -0.00060
 374  H 4   d 5      0.00004  -0.00026   0.00001  -0.00000  -0.00003  -0.00000
 375  H 4   d 1      0.00008  -0.00126   0.00002   0.00004  -0.00002  -0.00012
 376  H 4   d 2      0.00005   0.00172   0.00002  -0.00003  -0.00035  -0.00003
 377  H 4   d 3     -0.00007  -0.00067  -0.00007   0.00003   0.00018   0.00046
 378  H 4   d 4     -0.00009   0.00203   0.00007  -0.00013  -0.00028  -0.00047
 379  H 4   d 5     -0.00000  -0.00045  -0.00011  -0.00006   0.00040   0.00031
 380  H 4   f 1     -0.00000  -0.00006  -0.00000  -0.00000   0.00001   0.00004
 381  H 4   f 2     -0.00000   0.00020  -0.00000  -0.00000   0.00001  -0.00008
 382  H 4   f 3      0.00000  -0.00015  -0.00000   0.00000  -0.00001   0.00005
 383  H 4   f 4     -0.00000  -0.00004  -0.00000   0.00000   0.00001   0.00000
 384  H 4   f 5      0.00000  -0.00017  -0.00000   0.00001  -0.00002   0.00010
 385  H 4   f 6     -0.00001   0.00005  -0.00000  -0.00000   0.00003  -0.00003
 386  H 4   f 7     -0.00000   0.00004   0.00000  -0.00000   0.00001  -0.00000
 387  H 4   f 1      0.00003  -0.00035   0.00000   0.00000  -0.00008   0.00001
 388  H 4   f 2     -0.00002   0.00094   0.00000  -0.00003   0.00007  -0.00017
 389  H 4   f 3     -0.00001  -0.00065   0.00000  -0.00003   0.00004   0.00004
 390  H 4   f 4      0.00003  -0.00018   0.00001   0.00006  -0.00010   0.00005
 391  H 4   f 5      0.00000  -0.00078  -0.00001   0.00001   0.00004   0.00015
 392  H 4   f 6      0.00001   0.00026   0.00003  -0.00001  -0.00015  -0.00008
 393  H 4   f 7      0.00000   0.00011  -0.00002  -0.00002   0.00001  -0.00010
 394  H 4   g 1      0.00000  -0.00001  -0.00000   0.00000   0.00001   0.00001
 395  H 4   g 2     -0.00000   0.00010  -0.00000  -0.00000   0.00001  -0.00004
 396  H 4   g 3      0.00000  -0.00015   0.00000  -0.00000  -0.00001   0.00006
 397  H 4   g 4      0.00000   0.00004  -0.00000   0.00001  -0.00000  -0.00002
 398  H 4   g 5     -0.00000   0.00008  -0.00000  -0.00001   0.00001  -0.00003
 399  H 4   g 6      0.00000   0.00004   0.00000   0.00000   0.00000  -0.00004
 400  H 4   g 7     -0.00000  -0.00004  -0.00000   0.00001   0.00000   0.00003
 401  H 4   g 8      0.00000  -0.00004   0.00000   0.00000  -0.00001   0.00001
 402  H 4   g 9     -0.00000   0.00002  -0.00000  -0.00000   0.00000  -0.00001
 403  O 3   s        0.00000  -0.00001  -0.00001  -0.97854   0.00021  -0.00244
 404  O 3   s        0.00000  -0.00005  -0.00001  -0.03103  -0.00286   0.03541
 405  O 3   s        0.00000  -0.00008  -0.00001  -0.08523  -0.00007   0.00098
 406  O 3   s       -0.00002   0.00033  -0.00003   0.01567  -0.00315   0.04019
 407  O 3   s        0.00010  -0.00057   0.00059   0.01852  -0.00484   0.05338
 408  O 3   s        0.00021  -0.00053   0.00073   0.00228  -0.00235   0.02177
 409  O 3   px       0.00000   0.00000  -0.00000  -0.00042   0.00006  -0.00020
 410  O 3   py       0.00000  -0.00000  -0.00000  -0.00027  -0.00005   0.00066
 411  O 3   pz       0.00000   0.00000  -0.00000   0.00105   0.00031  -0.00354
 412  O 3   px      -0.00000  -0.00001   0.00001  -0.00000   0.00008  -0.00019
 413  O 3   py      -0.00000   0.00001   0.00001  -0.00016  -0.00007   0.00106
 414  O 3   pz      -0.00000   0.00002   0.00001   0.00075   0.00048  -0.00568
 415  O 3   px       0.00004  -0.00019  -0.00005   0.00042   0.00014  -0.00054
 416  O 3   py       0.00002  -0.00004  -0.00002   0.00218  -0.00015   0.00183
 417  O 3   pz       0.00000  -0.00030  -0.00010  -0.00997   0.00091  -0.00928
 418  O 3   px      -0.00003  -0.00060  -0.00035   0.00042  -0.00015  -0.00065
 419  O 3   py       0.00009  -0.00000  -0.00006   0.00060  -0.00023   0.00088
 420  O 3   pz      -0.00006  -0.00007  -0.00035  -0.00161   0.00082  -0.00658
 421  O 3   px       0.00001  -0.00009  -0.00005   0.00028  -0.00009   0.00001
 422  O 3   py      -0.00001  -0.00001  -0.00001   0.00004  -0.00009   0.00030
 423  O 3   pz      -0.00004   0.00003  -0.00011  -0.00001   0.00017  -0.00104
 424  O 3   d 1     -0.00000  -0.00000   0.00000  -0.00006  -0.00000   0.00000
 425  O 3   d 2     -0.00000  -0.00000  -0.00000   0.00006   0.00000  -0.00001
 426  O 3   d 3     -0.00000  -0.00000   0.00000  -0.00005  -0.00000   0.00004
 427  O 3   d 4      0.00000  -0.00001   0.00000  -0.00009  -0.00000   0.00004
 428  O 3   d 5      0.00000  -0.00000   0.00000  -0.00025  -0.00000   0.00003
 429  O 3   d 1      0.00000   0.00000  -0.00000   0.00011  -0.00000   0.00006
 430  O 3   d 2      0.00000   0.00001  -0.00000  -0.00012   0.00001  -0.00009
 431  O 3   d 3      0.00000  -0.00001  -0.00000   0.00014  -0.00002   0.00013
 432  O 3   d 4      0.00000   0.00004  -0.00000   0.00015  -0.00001   0.00015
 433  O 3   d 5     -0.00000   0.00002  -0.00000   0.00042  -0.00002   0.00028
 434  O 3   d 1     -0.00001  -0.00005   0.00003   0.00046  -0.00003   0.00015
 435  O 3   d 2     -0.00003  -0.00003   0.00002  -0.00058   0.00003  -0.00039
 436  O 3   d 3     -0.00001   0.00033   0.00001   0.00057  -0.00006   0.00068
 437  O 3   d 4     -0.00001  -0.00000   0.00005   0.00202  -0.00013   0.00096
 438  O 3   d 5      0.00001  -0.00018   0.00004   0.00294  -0.00016   0.00121
 439  O 3   d 1     -0.00001  -0.00010   0.00001  -0.00017  -0.00003   0.00022
 440  O 3   d 2     -0.00003  -0.00008   0.00006   0.00001   0.00007  -0.00008
 441  O 3   d 3     -0.00000   0.00016   0.00005  -0.00013  -0.00004   0.00014
 442  O 3   d 4      0.00001   0.00016   0.00016  -0.00027  -0.00010   0.00084
 443  O 3   d 5      0.00001  -0.00008   0.00003  -0.00048  -0.00019   0.00114
 444  O 3   f 1     -0.00000   0.00000  -0.00000  -0.00005   0.00000   0.00000
 445  O 3   f 2     -0.00000   0.00000   0.00000   0.00000  -0.00000  -0.00000
 446  O 3   f 3     -0.00000   0.00000   0.00000   0.00000   0.00000  -0.00000
 447  O 3   f 4     -0.00000   0.00002  -0.00000  -0.00003   0.00000   0.00000
 448  O 3   f 5     -0.00000  -0.00000  -0.00000   0.00014  -0.00000  -0.00001
 449  O 3   f 6      0.00000  -0.00001   0.00000   0.00011   0.00000  -0.00001
 450  O 3   f 7     -0.00000  -0.00000   0.00000  -0.00004   0.00000   0.00000
 451  O 3   f 1      0.00000  -0.00002   0.00000   0.00041  -0.00001   0.00010
 452  O 3   f 2      0.00000  -0.00000  -0.00001  -0.00000   0.00000   0.00002
 453  O 3   f 3      0.00000   0.00001  -0.00000   0.00004  -0.00001   0.00007
 454  O 3   f 4      0.00000  -0.00009   0.00000   0.00020  -0.00000   0.00003
 455  O 3   f 5      0.00000  -0.00001  -0.00000  -0.00118   0.00004  -0.00032
 456  O 3   f 6     -0.00000   0.00004  -0.00001  -0.00094   0.00003  -0.00029
 457  O 3   f 7      0.00000   0.00000  -0.00000   0.00030  -0.00000   0.00004
 458  O 3   f 1      0.00001  -0.00004  -0.00001  -0.00013  -0.00005   0.00017
 459  O 3   f 2      0.00001   0.00002  -0.00002   0.00010  -0.00001   0.00000
 460  O 3   f 3      0.00001   0.00007  -0.00002  -0.00003   0.00001  -0.00001
 461  O 3   f 4      0.00001  -0.00008   0.00001  -0.00009  -0.00000   0.00014
 462  O 3   f 5      0.00001   0.00000  -0.00003   0.00027   0.00009  -0.00055
 463  O 3   f 6     -0.00000  -0.00001  -0.00002   0.00039   0.00007  -0.00049
 464  O 3   f 7     -0.00001  -0.00006  -0.00002  -0.00006  -0.00002   0.00009
 465  O 3   g 1     -0.00000  -0.00000   0.00000   0.00005  -0.00000   0.00000
 466  O 3   g 2     -0.00000   0.00000  -0.00000  -0.00006   0.00000  -0.00001
 467  O 3   g 3      0.00000   0.00000  -0.00000  -0.00003   0.00000  -0.00001
 468  O 3   g 4      0.00000   0.00000  -0.00000  -0.00000   0.00000  -0.00000
 469  O 3   g 5      0.00000   0.00000   0.00000  -0.00002   0.00000  -0.00000
 470  O 3   g 6      0.00000   0.00000   0.00000   0.00014  -0.00000   0.00003
 471  O 3   g 7     -0.00000  -0.00000   0.00000   0.00007  -0.00000   0.00002
 472  O 3   g 8     -0.00000  -0.00000   0.00000  -0.00001  -0.00000   0.00000
 473  O 3   g 9      0.00000  -0.00000   0.00000   0.00005  -0.00000   0.00001
 474  O 3   g 1      0.00000  -0.00000   0.00000   0.00002  -0.00001   0.00003
 475  O 3   g 2     -0.00000   0.00001   0.00000   0.00001   0.00001  -0.00008
 476  O 3   g 3     -0.00000  -0.00000   0.00001  -0.00003   0.00001  -0.00004
 477  O 3   g 4     -0.00000  -0.00002   0.00000   0.00001  -0.00000   0.00000
 478  O 3   g 5     -0.00000   0.00003  -0.00000  -0.00000  -0.00000  -0.00006
 479  O 3   g 6     -0.00000   0.00003  -0.00000  -0.00001  -0.00002   0.00017
 480  O 3   g 7     -0.00000   0.00001   0.00000  -0.00000  -0.00001   0.00012
 481  O 3   g 8     -0.00000   0.00000   0.00000   0.00007  -0.00000  -0.00002
 482  O 3   g 9     -0.00000  -0.00000  -0.00000   0.00006  -0.00000   0.00003
 483  O 3   h 1      0.00000  -0.00000   0.00000   0.00004  -0.00000   0.00001
 484  O 3   h 2      0.00000  -0.00000  -0.00000  -0.00001   0.00000  -0.00001
 485  O 3   h 3      0.00000   0.00000  -0.00000   0.00001  -0.00000   0.00001
 486  O 3   h 4      0.00000   0.00000  -0.00000   0.00003  -0.00000   0.00002
 487  O 3   h 5      0.00000   0.00000  -0.00000   0.00000  -0.00000   0.00000
 488  O 3   h 6      0.00000  -0.00001   0.00000   0.00001  -0.00000   0.00001
 489  O 3   h 7     -0.00000  -0.00001   0.00000  -0.00000   0.00000  -0.00002
 490  O 3   h 8      0.00000  -0.00000  -0.00000  -0.00002   0.00000  -0.00002
 491  O 3   h 9      0.00000   0.00000  -0.00000  -0.00006   0.00000  -0.00001
 492  O 3   h10      0.00000  -0.00000   0.00000  -0.00004   0.00000  -0.00001
 493  O 3   h11     -0.00000  -0.00000  -0.00000   0.00002  -0.00000   0.00000
 494  H 5   s        0.00000  -0.00000  -0.00000   0.00019  -0.00020   0.00261
 495  H 5   s        0.00001  -0.00006   0.00002   0.00145  -0.00046   0.00577
 496  H 5   s       -0.00004   0.00089   0.00003  -0.00896  -0.00009   0.00709
 497  H 5   s       -0.00015   0.00038  -0.00016  -0.00158   0.00037   0.00135
 498  H 5   s        0.00001   0.00000   0.00001  -0.00032  -0.00006   0.00035
 499  H 5   px       0.00000  -0.00000   0.00000  -0.00018   0.00001  -0.00020
 500  H 5   py      -0.00000   0.00000  -0.00000  -0.00004   0.00000  -0.00004
 501  H 5   pz       0.00000  -0.00000  -0.00000   0.00005  -0.00000   0.00004
 502  H 5   px      -0.00000   0.00001  -0.00001   0.00005   0.00005  -0.00062
 503  H 5   py       0.00000  -0.00000   0.00000  -0.00000   0.00001  -0.00013
 504  H 5   pz      -0.00000  -0.00001   0.00000   0.00006  -0.00001   0.00013
 505  H 5   px       0.00005  -0.00041   0.00004   0.00654  -0.00010  -0.00113
 506  H 5   py      -0.00001  -0.00008  -0.00001   0.00154   0.00000  -0.00014
 507  H 5   pz      -0.00000   0.00023  -0.00001  -0.00261   0.00007   0.00008
 508  H 5   px       0.00007  -0.00020   0.00008   0.00198  -0.00019  -0.00029
 509  H 5   py       0.00002  -0.00005   0.00004   0.00047  -0.00005  -0.00004
 510  H 5   pz       0.00000   0.00012  -0.00001  -0.00075   0.00011  -0.00034
 511  H 5   d 1     -0.00000  -0.00000  -0.00000   0.00007  -0.00000   0.00003
 512  H 5   d 2      0.00000   0.00000   0.00000  -0.00003   0.00000  -0.00000
 513  H 5   d 3     -0.00000  -0.00000  -0.00000  -0.00005   0.00000  -0.00003
 514  H 5   d 4     -0.00000   0.00000  -0.00000  -0.00013   0.00000  -0.00002
 515  H 5   d 5      0.00000  -0.00001   0.00000   0.00013  -0.00001   0.00006
 516  H 5   d 1      0.00000   0.00002   0.00001  -0.00080  -0.00000   0.00006
 517  H 5   d 2     -0.00000  -0.00002  -0.00000   0.00032  -0.00000  -0.00003
 518  H 5   d 3      0.00000  -0.00001   0.00000   0.00073   0.00000  -0.00005
 519  H 5   d 4      0.00000  -0.00006   0.00000   0.00133  -0.00001  -0.00011
 520  H 5   d 5     -0.00001   0.00006  -0.00001  -0.00163   0.00001   0.00014
 521  H 5   d 1     -0.00001   0.00002  -0.00002  -0.00092   0.00001   0.00007
 522  H 5   d 2     -0.00000  -0.00002   0.00001   0.00033  -0.00000   0.00001
 523  H 5   d 3      0.00002  -0.00003   0.00003   0.00094  -0.00001  -0.00012
 524  H 5   d 4     -0.00000  -0.00012   0.00001   0.00154  -0.00005   0.00007
 525  H 5   d 5     -0.00003   0.00007  -0.00004  -0.00184   0.00003   0.00027
 526  H 5   f 1     -0.00000  -0.00000  -0.00000   0.00012   0.00000  -0.00001
 527  H 5   f 2     -0.00000   0.00000   0.00000  -0.00008  -0.00000   0.00001
 528  H 5   f 3     -0.00000  -0.00000   0.00000  -0.00001  -0.00000   0.00000
 529  H 5   f 4      0.00000  -0.00000  -0.00000   0.00012  -0.00000  -0.00001
 530  H 5   f 5     -0.00000  -0.00000   0.00000  -0.00007  -0.00000   0.00000
 531  H 5   f 6     -0.00000   0.00001  -0.00000  -0.00016   0.00000   0.00001
 532  H 5   f 7      0.00000  -0.00000  -0.00000   0.00016  -0.00000  -0.00001
 533  H 5   f 1      0.00000  -0.00001   0.00001   0.00057   0.00000  -0.00005
 534  H 5   f 2      0.00000   0.00002  -0.00000  -0.00036  -0.00000   0.00002
 535  H 5   f 3     -0.00000  -0.00000  -0.00000  -0.00005   0.00000  -0.00001
 536  H 5   f 4      0.00000  -0.00002   0.00000   0.00054  -0.00000  -0.00002
 537  H 5   f 5     -0.00001  -0.00001  -0.00001  -0.00031  -0.00000   0.00001
 538  H 5   f 6     -0.00000   0.00003  -0.00000  -0.00074   0.00001   0.00003
 539  H 5   f 7      0.00001  -0.00002   0.00001   0.00070  -0.00000  -0.00007
 540  H 5   g 1     -0.00000  -0.00000  -0.00000  -0.00010  -0.00000   0.00001
 541  H 5   g 2     -0.00000  -0.00000   0.00000   0.00008   0.00000  -0.00000
 542  H 5   g 3      0.00000   0.00000   0.00000   0.00000   0.00000  -0.00000
 543  H 5   g 4     -0.00000  -0.00000  -0.00000  -0.00002  -0.00000   0.00000
 544  H 5   g 5     -0.00000  -0.00000  -0.00000  -0.00000  -0.00000  -0.00000
 545  H 5   g 6     -0.00000   0.00000  -0.00000  -0.00011   0.00000   0.00001
 546  H 5   g 7      0.00000   0.00000   0.00000   0.00002   0.00000  -0.00000
 547  H 5   g 8      0.00000  -0.00000   0.00000   0.00010  -0.00000  -0.00000
 548  H 5   g 9     -0.00000   0.00000  -0.00000  -0.00007  -0.00000   0.00001
 549  H 6   s        0.00000   0.00000   0.00000   0.00028  -0.00045   0.00468
 550  H 6   s       -0.00001   0.00008   0.00004   0.00159  -0.00097   0.00990
 551  H 6   s       -0.00004  -0.00077  -0.00057  -0.01391  -0.00089   0.01372
 552  H 6   s       -0.00000  -0.00023  -0.00069  -0.00257  -0.00024   0.00131
 553  H 6   s        0.00004   0.00001   0.00001   0.00042   0.00008   0.00067
 554  H 6   px      -0.00000   0.00001   0.00000   0.00014  -0.00001   0.00013
 555  H 6   py       0.00000   0.00000  -0.00000  -0.00003   0.00000  -0.00003
 556  H 6   pz      -0.00000  -0.00000  -0.00000   0.00022  -0.00002   0.00020
 557  H 6   px      -0.00000  -0.00001  -0.00000  -0.00027   0.00003   0.00005
 558  H 6   py      -0.00000  -0.00001  -0.00000   0.00004   0.00002  -0.00008
 559  H 6   pz       0.00000  -0.00001   0.00001  -0.00039   0.00001   0.00026
 560  H 6   px       0.00001  -0.00037  -0.00008  -0.00596   0.00020  -0.00081
 561  H 6   py      -0.00004   0.00002   0.00010   0.00099  -0.00002  -0.00026
 562  H 6   pz      -0.00000  -0.00011  -0.00023  -0.00903   0.00022  -0.00069
 563  H 6   px      -0.00003   0.00044  -0.00013  -0.00178   0.00009   0.00074
 564  H 6   py      -0.00005  -0.00007   0.00014   0.00005   0.00018   0.00014
 565  H 6   pz      -0.00010   0.00040  -0.00030  -0.00212  -0.00006   0.00008
 566  H 6   d 1     -0.00000  -0.00001  -0.00000  -0.00002  -0.00001   0.00000
 567  H 6   d 2      0.00000  -0.00000   0.00000  -0.00004   0.00000  -0.00000
 568  H 6   d 3     -0.00000  -0.00001   0.00000   0.00011  -0.00000   0.00005
 569  H 6   d 4      0.00000   0.00004  -0.00000   0.00009  -0.00001   0.00012
 570  H 6   d 5      0.00000   0.00003   0.00000   0.00001  -0.00000   0.00005
 571  H 6   d 1     -0.00000   0.00006   0.00001   0.00033   0.00002  -0.00002
 572  H 6   d 2     -0.00001   0.00003   0.00001   0.00052  -0.00001  -0.00005
 573  H 6   d 3      0.00000   0.00008  -0.00002  -0.00183  -0.00000  -0.00001
 574  H 6   d 4     -0.00000  -0.00020  -0.00001  -0.00236   0.00000   0.00027
 575  H 6   d 5     -0.00000  -0.00016  -0.00001  -0.00068  -0.00001   0.00023
 576  H 6   d 1     -0.00003  -0.00014   0.00005   0.00026  -0.00009   0.00026
 577  H 6   d 2     -0.00002  -0.00008   0.00008   0.00034   0.00002   0.00015
 578  H 6   d 3     -0.00002  -0.00001  -0.00009  -0.00203   0.00006   0.00003
 579  H 6   d 4      0.00003  -0.00013  -0.00008  -0.00371  -0.00005   0.00043
 580  H 6   d 5      0.00002  -0.00011   0.00004  -0.00139  -0.00004   0.00036
 581  H 6   f 1     -0.00000  -0.00000   0.00000   0.00002  -0.00000  -0.00000
 582  H 6   f 2      0.00000   0.00000  -0.00000   0.00006  -0.00000  -0.00001
 583  H 6   f 3     -0.00000  -0.00001   0.00000   0.00006  -0.00000  -0.00000
 584  H 6   f 4      0.00000   0.00001  -0.00000  -0.00008  -0.00000   0.00002
 585  H 6   f 5      0.00000   0.00000  -0.00000  -0.00029   0.00000   0.00000
 586  H 6   f 6      0.00000   0.00000  -0.00000  -0.00016   0.00000  -0.00002
 587  H 6   f 7     -0.00000   0.00001  -0.00000  -0.00003   0.00000  -0.00001
 588  H 6   f 1     -0.00001   0.00003   0.00001   0.00013   0.00000  -0.00004
 589  H 6   f 2     -0.00001   0.00003   0.00002   0.00030   0.00000  -0.00004
 590  H 6   f 3     -0.00001   0.00003   0.00002   0.00027   0.00001  -0.00006
 591  H 6   f 4     -0.00000   0.00008  -0.00001  -0.00037   0.00001  -0.00005
 592  H 6   f 5      0.00000  -0.00001  -0.00002  -0.00137  -0.00002   0.00011
 593  H 6   f 6     -0.00000  -0.00012   0.00001  -0.00078  -0.00001   0.00021
 594  H 6   f 7     -0.00000  -0.00008   0.00001  -0.00019  -0.00001   0.00010
 595  H 6   g 1     -0.00000   0.00000   0.00000   0.00001  -0.00000  -0.00000
 596  H 6   g 2     -0.00000   0.00000   0.00000   0.00003  -0.00000  -0.00000
 597  H 6   g 3     -0.00000   0.00000   0.00000   0.00004   0.00000  -0.00001
 598  H 6   g 4     -0.00000   0.00000   0.00000   0.00003   0.00000  -0.00001
 599  H 6   g 5     -0.00000   0.00002  -0.00000   0.00001  -0.00000   0.00001
 600  H 6   g 6     -0.00000   0.00001  -0.00000  -0.00012  -0.00000   0.00001
 601  H 6   g 7     -0.00000  -0.00002   0.00000  -0.00011   0.00000   0.00000
 602  H 6   g 8     -0.00000  -0.00002   0.00000  -0.00004   0.00000  -0.00000
 603  H 6   g 9     -0.00000  -0.00001   0.00000  -0.00000   0.00000  -0.00000
 604  O 4   s       -0.00000   0.00000   0.97844  -0.00000   0.00097   0.00006
 605  O 4   s        0.00001  -0.00000   0.03086   0.00001  -0.01452  -0.00112
 606  O 4   s       -0.00001  -0.00000   0.08498   0.00001  -0.00050  -0.00007
 607  O 4   s        0.00008   0.00005  -0.01508  -0.00012  -0.01635  -0.00123
 608  O 4   s        0.00025  -0.00018  -0.01618   0.00036  -0.01986  -0.00089
 609  O 4   s        0.00044  -0.00058  -0.00180   0.00077  -0.00852   0.00002
 610  O 4   px      -0.00000  -0.00000   0.00057   0.00000  -0.00030  -0.00000
 611  O 4   py       0.00000  -0.00000  -0.00015   0.00000   0.00009   0.00005
 612  O 4   pz       0.00000  -0.00000  -0.00104  -0.00000   0.00159   0.00012
 613  O 4   px       0.00002   0.00001   0.00027  -0.00001  -0.00040   0.00000
 614  O 4   py      -0.00002   0.00001  -0.00007  -0.00001   0.00020   0.00008
 615  O 4   pz      -0.00002   0.00000  -0.00069   0.00001   0.00259   0.00022
 616  O 4   px      -0.00020  -0.00009  -0.00385   0.00005  -0.00140  -0.00002
 617  O 4   py       0.00006  -0.00003   0.00091   0.00004   0.00012   0.00014
 618  O 4   pz      -0.00015  -0.00001   0.00858  -0.00004   0.00354   0.00014
 619  O 4   px      -0.00048  -0.00024  -0.00052   0.00027  -0.00055   0.00025
 620  O 4   py      -0.00011  -0.00006   0.00014   0.00004  -0.00021   0.00035
 621  O 4   pz      -0.00015   0.00031   0.00082  -0.00030   0.00367  -0.00019
 622  O 4   px      -0.00006  -0.00017  -0.00020   0.00009   0.00046   0.00014
 623  O 4   py      -0.00003  -0.00005   0.00004   0.00003  -0.00008  -0.00004
 624  O 4   pz      -0.00005   0.00008  -0.00011  -0.00010   0.00069   0.00003
 625  O 4   d 1     -0.00000   0.00000  -0.00006  -0.00000   0.00000   0.00000
 626  O 4   d 2      0.00000  -0.00000   0.00001   0.00000   0.00000  -0.00000
 627  O 4   d 3     -0.00000  -0.00000   0.00008   0.00000  -0.00004  -0.00000
 628  O 4   d 4     -0.00000   0.00000   0.00009  -0.00000  -0.00001  -0.00000
 629  O 4   d 5     -0.00000  -0.00000   0.00024   0.00000  -0.00001  -0.00000
 630  O 4   d 1      0.00000  -0.00000   0.00011   0.00000   0.00002   0.00000
 631  O 4   d 2      0.00000   0.00000  -0.00002  -0.00000  -0.00002  -0.00000
 632  O 4   d 3      0.00001   0.00000  -0.00017  -0.00000  -0.00003  -0.00001
 633  O 4   d 4      0.00001  -0.00001  -0.00013   0.00000  -0.00007  -0.00000
 634  O 4   d 5      0.00001   0.00000  -0.00040  -0.00001  -0.00012  -0.00001
 635  O 4   d 1      0.00001   0.00001   0.00064   0.00001   0.00017   0.00002
 636  O 4   d 2     -0.00001   0.00001  -0.00001  -0.00001   0.00012  -0.00005
 637  O 4   d 3      0.00005   0.00001  -0.00079   0.00001  -0.00055  -0.00000
 638  O 4   d 4      0.00008   0.00007  -0.00142  -0.00001   0.00023  -0.00000
 639  O 4   d 5     -0.00004  -0.00003  -0.00274   0.00005  -0.00029   0.00003
 640  O 4   d 1      0.00006  -0.00003  -0.00014   0.00001   0.00001   0.00010
 641  O 4   d 2      0.00012   0.00007  -0.00000  -0.00005   0.00015  -0.00012
 642  O 4   d 3     -0.00006  -0.00009   0.00046   0.00003  -0.00100   0.00005
 643  O 4   d 4      0.00015   0.00015   0.00011  -0.00003  -0.00017  -0.00016
 644  O 4   d 5     -0.00000  -0.00003   0.00041   0.00013   0.00004  -0.00000
 645  O 4   f 1     -0.00000   0.00000  -0.00003  -0.00000   0.00000  -0.00000
 646  O 4   f 2     -0.00000   0.00000   0.00001  -0.00000   0.00001  -0.00000
 647  O 4   f 3     -0.00000  -0.00000   0.00001   0.00000   0.00001   0.00000
 648  O 4   f 4     -0.00000   0.00000  -0.00004   0.00000  -0.00001  -0.00000
 649  O 4   f 5     -0.00000  -0.00000  -0.00015   0.00000   0.00001   0.00000
 650  O 4   f 6      0.00000  -0.00000  -0.00006   0.00000   0.00000   0.00000
 651  O 4   f 7      0.00000   0.00000   0.00007  -0.00000   0.00000  -0.00000
 652  O 4   f 1      0.00000  -0.00000   0.00027   0.00000   0.00002   0.00001
 653  O 4   f 2      0.00001  -0.00001  -0.00009   0.00000  -0.00005   0.00000
 654  O 4   f 3      0.00001  -0.00000  -0.00009  -0.00000  -0.00004   0.00000
 655  O 4   f 4      0.00000  -0.00001   0.00030  -0.00000   0.00009   0.00001
 656  O 4   f 5     -0.00000   0.00000   0.00122  -0.00001   0.00005  -0.00000
 657  O 4   f 6     -0.00001   0.00001   0.00052  -0.00000   0.00004  -0.00000
 658  O 4   f 7     -0.00001  -0.00001  -0.00058   0.00000  -0.00007   0.00000
 659  O 4   f 1      0.00002  -0.00002  -0.00011   0.00002  -0.00003   0.00006
 660  O 4   f 2     -0.00001  -0.00001   0.00006   0.00000  -0.00008   0.00001
 661  O 4   f 3     -0.00006  -0.00003   0.00003   0.00002  -0.00006   0.00004
 662  O 4   f 4      0.00008   0.00000  -0.00021  -0.00001   0.00030   0.00000
 663  O 4   f 5     -0.00002  -0.00003  -0.00039  -0.00003   0.00020   0.00005
 664  O 4   f 6     -0.00002   0.00004  -0.00022  -0.00003   0.00002  -0.00002
 665  O 4   f 7     -0.00002  -0.00000   0.00020   0.00004  -0.00009  -0.00001
 666  O 4   g 1      0.00000   0.00000   0.00004  -0.00000   0.00000  -0.00000
 667  O 4   g 2     -0.00000  -0.00000  -0.00001   0.00000  -0.00000   0.00000
 668  O 4   g 3     -0.00000  -0.00000  -0.00001   0.00000  -0.00000   0.00000
 669  O 4   g 4     -0.00000  -0.00000   0.00001   0.00000   0.00000   0.00000
 670  O 4   g 5      0.00000   0.00000  -0.00007  -0.00000  -0.00000  -0.00000
 671  O 4   g 6     -0.00000   0.00000  -0.00014  -0.00000  -0.00000   0.00000
 672  O 4   g 7     -0.00000   0.00000  -0.00001  -0.00000   0.00000  -0.00000
 673  O 4   g 8     -0.00000  -0.00000   0.00002   0.00000   0.00000   0.00000
 674  O 4   g 9     -0.00000  -0.00000  -0.00007  -0.00000  -0.00000   0.00000
 675  O 4   g 1      0.00000  -0.00000   0.00002   0.00001   0.00001   0.00001
 676  O 4   g 2     -0.00000   0.00000   0.00002  -0.00000   0.00001  -0.00001
 677  O 4   g 3      0.00000   0.00001  -0.00000  -0.00000   0.00003  -0.00001
 678  O 4   g 4      0.00001   0.00001   0.00000  -0.00000   0.00002  -0.00001
 679  O 4   g 5     -0.00003  -0.00000   0.00001   0.00001  -0.00009  -0.00000
 680  O 4   g 6      0.00000  -0.00001   0.00001   0.00001  -0.00010  -0.00001
 681  O 4   g 7      0.00001  -0.00000   0.00002  -0.00000   0.00001   0.00000
 682  O 4   g 8      0.00000   0.00001  -0.00003  -0.00001   0.00005  -0.00000
 683  O 4   g 9     -0.00000  -0.00000  -0.00005   0.00001  -0.00002  -0.00000
 684  O 4   h 1      0.00000  -0.00000   0.00003   0.00000   0.00000   0.00000
 685  O 4   h 2      0.00000  -0.00000  -0.00001  -0.00000  -0.00000  -0.00000
 686  O 4   h 3      0.00000  -0.00000  -0.00002   0.00000  -0.00000  -0.00000
 687  O 4   h 4     -0.00000  -0.00000   0.00000   0.00000  -0.00000   0.00000
 688  O 4   h 5     -0.00000  -0.00000   0.00000   0.00000  -0.00000   0.00000
 689  O 4   h 6      0.00000   0.00000   0.00001  -0.00000   0.00002   0.00000
 690  O 4   h 7      0.00000   0.00000   0.00002  -0.00000   0.00002   0.00000
 691  O 4   h 8      0.00000  -0.00000   0.00002   0.00000  -0.00000   0.00000
 692  O 4   h 9      0.00000  -0.00000   0.00005   0.00000  -0.00000   0.00000
 693  O 4   h10     -0.00000   0.00000   0.00002  -0.00000   0.00000   0.00000
 694  O 4   h11     -0.00000   0.00000  -0.00004   0.00000  -0.00000  -0.00000
 695  H 7   s        0.00001  -0.00000  -0.00020   0.00000  -0.00214  -0.00020
 696  H 7   s        0.00003   0.00001  -0.00177  -0.00000  -0.00403  -0.00029
 697  H 7   s       -0.00049   0.00008   0.01040  -0.00024  -0.00784  -0.00134
 698  H 7   s        0.00016  -0.00004   0.00173  -0.00033  -0.00121  -0.00008
 699  H 7   s       -0.00009  -0.00020  -0.00023   0.00004   0.00052  -0.00013
 700  H 7   px      -0.00000   0.00000  -0.00009  -0.00000  -0.00004  -0.00000
 701  H 7   py       0.00000  -0.00000   0.00000  -0.00000  -0.00000   0.00000
 702  H 7   pz      -0.00002   0.00000  -0.00018   0.00000  -0.00004  -0.00000
 703  H 7   px       0.00002  -0.00001   0.00008   0.00000  -0.00013   0.00001
 704  H 7   py      -0.00001  -0.00000  -0.00001   0.00000  -0.00003   0.00002
 705  H 7   pz       0.00012  -0.00000  -0.00002  -0.00001  -0.00010   0.00001
 706  H 7   px       0.00002   0.00005   0.00323  -0.00007   0.00018  -0.00016
 707  H 7   py       0.00006   0.00008  -0.00004  -0.00004   0.00016  -0.00010
 708  H 7   pz      -0.00040  -0.00004   0.00818  -0.00007   0.00038  -0.00007
 709  H 7   px      -0.00004   0.00006   0.00084  -0.00009   0.00023  -0.00002
 710  H 7   py       0.00020   0.00001  -0.00006  -0.00004   0.00018   0.00014
 711  H 7   pz      -0.00090   0.00002   0.00200  -0.00009  -0.00064  -0.00007
 712  H 7   d 1      0.00000  -0.00000  -0.00000  -0.00000  -0.00000   0.00000
 713  H 7   d 2      0.00000  -0.00000  -0.00000   0.00000  -0.00002  -0.00000
 714  H 7   d 3      0.00002  -0.00000  -0.00016   0.00000   0.00001   0.00000
 715  H 7   d 4      0.00001  -0.00000  -0.00014   0.00000  -0.00003  -0.00000
 716  H 7   d 5     -0.00000   0.00000  -0.00002   0.00000  -0.00001  -0.00000
 717  H 7   d 1     -0.00001   0.00001  -0.00000  -0.00000   0.00003  -0.00002
 718  H 7   d 2     -0.00000   0.00002   0.00000  -0.00001   0.00017   0.00000
 719  H 7   d 3     -0.00012  -0.00001   0.00206  -0.00001  -0.00050  -0.00007
 720  H 7   d 4     -0.00003   0.00001   0.00169  -0.00002  -0.00008  -0.00003
 721  H 7   d 5      0.00001  -0.00000   0.00036  -0.00000   0.00002   0.00001
 722  H 7   d 1      0.00005   0.00003  -0.00002  -0.00002   0.00010   0.00001
 723  H 7   d 2      0.00001   0.00002  -0.00009  -0.00002   0.00015  -0.00011
 724  H 7   d 3      0.00006  -0.00006   0.00292   0.00001  -0.00116  -0.00017
 725  H 7   d 4      0.00003  -0.00002   0.00213  -0.00002  -0.00017  -0.00014
 726  H 7   d 5      0.00004   0.00003   0.00039  -0.00002   0.00001  -0.00012
 727  H 7   f 1     -0.00000  -0.00000   0.00000   0.00000   0.00000   0.00000
 728  H 7   f 2     -0.00000   0.00000  -0.00000  -0.00000   0.00000  -0.00000
 729  H 7   f 3      0.00000   0.00000  -0.00000  -0.00000  -0.00001  -0.00000
 730  H 7   f 4      0.00001  -0.00000   0.00020   0.00000   0.00001   0.00000
 731  H 7   f 5      0.00001  -0.00000   0.00024  -0.00000  -0.00000  -0.00000
 732  H 7   f 6      0.00000   0.00000   0.00008  -0.00000  -0.00000  -0.00000
 733  H 7   f 7      0.00000   0.00000   0.00001  -0.00000  -0.00000   0.00000
 734  H 7   f 1      0.00001   0.00001   0.00000  -0.00001   0.00001  -0.00002
 735  H 7   f 2      0.00001   0.00001  -0.00002  -0.00000   0.00004  -0.00002
 736  H 7   f 3     -0.00000   0.00001  -0.00000  -0.00000   0.00013  -0.00002
 737  H 7   f 4     -0.00012  -0.00000   0.00090   0.00000  -0.00026  -0.00002
 738  H 7   f 5     -0.00007  -0.00001   0.00122   0.00000  -0.00006  -0.00002
 739  H 7   f 6      0.00001  -0.00000   0.00045  -0.00000   0.00004  -0.00001
 740  H 7   f 7      0.00001  -0.00000   0.00007  -0.00000   0.00002  -0.00001
 741  H 7   g 1      0.00000   0.00000   0.00000  -0.00000   0.00000  -0.00000
 742  H 7   g 2      0.00000   0.00000   0.00000  -0.00000   0.00000  -0.00000
 743  H 7   g 3     -0.00000   0.00000  -0.00000  -0.00000   0.00001  -0.00000
 744  H 7   g 4     -0.00000   0.00000   0.00000  -0.00000   0.00001  -0.00000
 745  H 7   g 5      0.00000  -0.00000   0.00008   0.00000  -0.00003  -0.00000
 746  H 7   g 6     -0.00000  -0.00000   0.00017   0.00000  -0.00002  -0.00000
 747  H 7   g 7      0.00000  -0.00000   0.00010  -0.00000   0.00000  -0.00000
 748  H 7   g 8      0.00000   0.00000   0.00002  -0.00000   0.00000  -0.00000
 749  H 7   g 9      0.00000  -0.00000   0.00000  -0.00000   0.00000  -0.00000
 750  H 8   s        0.00000  -0.00000  -0.00022   0.00000  -0.00113  -0.00008
 751  H 8   s       -0.00004  -0.00003  -0.00143  -0.00000  -0.00247  -0.00010
 752  H 8   s        0.00043   0.00025   0.00986  -0.00041  -0.00346  -0.00055
 753  H 8   s       -0.00009   0.00056   0.00162  -0.00031  -0.00166  -0.00057
 754  H 8   s        0.00003   0.00006   0.00032  -0.00001  -0.00041  -0.00004
 755  H 8   px      -0.00000   0.00000   0.00021  -0.00000   0.00009   0.00001
 756  H 8   py       0.00000   0.00000  -0.00003  -0.00000  -0.00001  -0.00000
 757  H 8   pz      -0.00000  -0.00000  -0.00003   0.00000  -0.00000   0.00000
 758  H 8   px       0.00000   0.00000  -0.00016   0.00001   0.00026  -0.00001
 759  H 8   py      -0.00000  -0.00001   0.00002   0.00001  -0.00004   0.00002
 760  H 8   pz       0.00002   0.00001  -0.00001  -0.00001   0.00002  -0.00001
 761  H 8   px      -0.00019  -0.00015  -0.00770   0.00014   0.00055   0.00022
 762  H 8   py       0.00002   0.00006   0.00113  -0.00010  -0.00001  -0.00014
 763  H 8   pz       0.00000  -0.00010   0.00156   0.00001  -0.00010   0.00007
 764  H 8   px       0.00002  -0.00025  -0.00233   0.00010   0.00045   0.00034
 765  H 8   py       0.00000   0.00011   0.00033  -0.00005   0.00005  -0.00012
 766  H 8   pz       0.00006  -0.00011   0.00044  -0.00002   0.00009   0.00005
[...]
 195  H 1   py       0.09554
 196  H 1   pz       0.03082
 197  H 1   px      -0.01237
 198  H 1   py       0.24169
 199  H 1   pz       0.10966
 200  H 1   d 1      0.00047
 201  H 1   d 2      0.00028
 202  H 1   d 3      0.00018
 203  H 1   d 4      0.00014
 204  H 1   d 5      0.00047
 205  H 1   d 1     -0.00699
 206  H 1   d 2      0.00133
 207  H 1   d 3     -0.00353
 208  H 1   d 4     -0.00226
 209  H 1   d 5     -0.00528
 210  H 1   d 1     -0.01322
 211  H 1   d 2      0.03475
 212  H 1   d 3     -0.01393
 213  H 1   d 4     -0.00603
 214  H 1   d 5     -0.04691
 215  H 1   f 1      0.00028
 216  H 1   f 2     -0.00018
 217  H 1   f 3     -0.00042
 218  H 1   f 4     -0.00036
 219  H 1   f 5      0.00003
 220  H 1   f 6     -0.00003
 221  H 1   f 7      0.00048
 222  H 1   f 1     -0.00637
 223  H 1   f 2     -0.00265
 224  H 1   f 3     -0.00146
 225  H 1   f 4     -0.00195
 226  H 1   f 5      0.00052
 227  H 1   f 6     -0.00418
 228  H 1   f 7      0.00474
 229  H 1   g 1      0.00043
 230  H 1   g 2     -0.00022
 231  H 1   g 3      0.00003
 232  H 1   g 4     -0.00031
 233  H 1   g 5      0.00005
 234  H 1   g 6      0.00004
 235  H 1   g 7      0.00012
 236  H 1   g 8      0.00024
 237  H 1   g 9      0.00021
 238  H 2   s       -0.00366
 239  H 2   s       -0.00303
 240  H 2   s       -0.05424
 241  H 2   s        0.03899
 242  H 2   s       -0.62132
 243  H 2   px       0.00086
 244  H 2   py       0.00037
 245  H 2   pz      -0.00023
 246  H 2   px       0.00096
 247  H 2   py      -0.00193
 248  H 2   pz       0.00198
 249  H 2   px       0.01156
 250  H 2   py       0.02942
 251  H 2   pz      -0.00277
 252  H 2   px       0.01765
 253  H 2   py       0.08851
 254  H 2   pz       0.06258
 255  H 2   d 1     -0.00028
 256  H 2   d 2      0.00027
 257  H 2   d 3     -0.00003
 258  H 2   d 4      0.00035
 259  H 2   d 5      0.00018
 260  H 2   d 1      0.00249
 261  H 2   d 2     -0.00120
 262  H 2   d 3     -0.00027
 263  H 2   d 4     -0.00182
 264  H 2   d 5     -0.00033
 265  H 2   d 1      0.03320
 266  H 2   d 2      0.00563
 267  H 2   d 3     -0.00351
 268  H 2   d 4      0.01066
 269  H 2   d 5     -0.00812
 270  H 2   f 1     -0.00012
 271  H 2   f 2     -0.00010
 272  H 2   f 3     -0.00007
 273  H 2   f 4      0.00004
 274  H 2   f 5      0.00006
 275  H 2   f 6     -0.00030
 276  H 2   f 7      0.00014
 277  H 2   f 1      0.00592
 278  H 2   f 2      0.00072
 279  H 2   f 3     -0.00133
 280  H 2   f 4     -0.00004
 281  H 2   f 5     -0.00023
 282  H 2   f 6      0.00131
 283  H 2   f 7     -0.00396
 284  H 2   g 1      0.00032
 285  H 2   g 2      0.00002
 286  H 2   g 3     -0.00017
 287  H 2   g 4     -0.00003
 288  H 2   g 5     -0.00002
 289  H 2   g 6      0.00005
 290  H 2   g 7      0.00011
 291  H 2   g 8     -0.00002
 292  H 2   g 9     -0.00045
 293  H 3   s        0.00390
 294  H 3   s        0.02537
 295  H 3   s        0.18022
 296  H 3   s       -0.64329
 297  H 3   s        0.90605
 298  H 3   px       0.00006
 299  H 3   py      -0.00240
 300  H 3   pz      -0.00186
 301  H 3   px       0.00291
 302  H 3   py       0.01258
 303  H 3   pz       0.00617
 304  H 3   px      -0.02070
 305  H 3   py      -0.05271
 306  H 3   pz      -0.01486
 307  H 3   px      -0.04062
 308  H 3   py      -0.15418
 309  H 3   pz      -0.17065
 310  H 3   d 1     -0.00009
 311  H 3   d 2      0.00058
 312  H 3   d 3     -0.00021
 313  H 3   d 4     -0.00013
 314  H 3   d 5     -0.00089
 315  H 3   d 1      0.00007
 316  H 3   d 2     -0.00060
 317  H 3   d 3      0.00305
 318  H 3   d 4     -0.00061
 319  H 3   d 5      0.00358
 320  H 3   d 1     -0.01537
 321  H 3   d 2     -0.06881
 322  H 3   d 3     -0.00884
 323  H 3   d 4     -0.02085
 324  H 3   d 5      0.03822
 325  H 3   f 1     -0.00034
 326  H 3   f 2      0.00025
 327  H 3   f 3      0.00102
 328  H 3   f 4      0.00005
 329  H 3   f 5     -0.00034
 330  H 3   f 6     -0.00055
 331  H 3   f 7      0.00035
 332  H 3   f 1      0.00565
 333  H 3   f 2     -0.00407
 334  H 3   f 3     -0.00957
 335  H 3   f 4      0.00404
 336  H 3   f 5     -0.00103
 337  H 3   f 6      0.01114
 338  H 3   f 7     -0.00041
 339  H 3   g 1      0.00009
 340  H 3   g 2      0.00052
 341  H 3   g 3     -0.00031
 342  H 3   g 4     -0.00004
 343  H 3   g 5      0.00040
 344  H 3   g 6     -0.00003
 345  H 3   g 7      0.00049
 346  H 3   g 8      0.00011
 347  H 3   g 9     -0.00013
 348  H 4   s        0.00852
 349  H 4   s        0.00832
 350  H 4   s        0.36258
 351  H 4   s       -0.07609
 352  H 4   s        0.86359
 353  H 4   px      -0.00180
 354  H 4   py      -0.00167
 355  H 4   pz       0.00213
 356  H 4   px       0.00475
 357  H 4   py       0.00681
 358  H 4   pz      -0.00228
 359  H 4   px       0.01836
 360  H 4   py       0.00423
 361  H 4   pz      -0.05678
 362  H 4   px      -0.01773
 363  H 4   py      -0.01819
 364  H 4   pz      -0.07321
 365  H 4   d 1      0.00020
 366  H 4   d 2      0.00056
 367  H 4   d 3     -0.00027
 368  H 4   d 4      0.00011
 369  H 4   d 5     -0.00002
 370  H 4   d 1      0.00360
 371  H 4   d 2     -0.00924
 372  H 4   d 3      0.00558
 373  H 4   d 4     -0.00862
 374  H 4   d 5      0.00106
 375  H 4   d 1     -0.01215
 376  H 4   d 2      0.02357
 377  H 4   d 3      0.02040
 378  H 4   d 4      0.00386
 379  H 4   d 5     -0.00704
 380  H 4   f 1      0.00050
 381  H 4   f 2     -0.00129
 382  H 4   f 3      0.00090
 383  H 4   f 4      0.00014
 384  H 4   f 5      0.00122
 385  H 4   f 6     -0.00024
 386  H 4   f 7     -0.00004
 387  H 4   f 1     -0.00202
 388  H 4   f 2      0.00384
 389  H 4   f 3     -0.00133
 390  H 4   f 4     -0.00346
 391  H 4   f 5     -0.00023
 392  H 4   f 6      0.00130
 393  H 4   f 7     -0.00035
 394  H 4   g 1      0.00004
 395  H 4   g 2      0.00016
 396  H 4   g 3      0.00006
 397  H 4   g 4     -0.00014
 398  H 4   g 5      0.00012
 399  H 4   g 6     -0.00029
 400  H 4   g 7      0.00001
 401  H 4   g 8      0.00005
 402  H 4   g 9      0.00001
 403  O 3   s       -0.00207
 404  O 3   s        0.03062
 405  O 3   s       -0.00099
 406  O 3   s        0.01251
 407  O 3   s        0.20727
 408  O 3   s        0.76512
 409  O 3   px       0.03356
 410  O 3   py       0.00610
 411  O 3   pz      -0.00401
 412  O 3   px       0.05787
 413  O 3   py       0.00996
 414  O 3   pz      -0.00085
 415  O 3   px       0.04631
 416  O 3   py       0.01313
 417  O 3   pz      -0.04725
 418  O 3   px      -0.11131
 419  O 3   py      -0.02391
 420  O 3   pz      -0.25739
 421  O 3   px       0.27934
 422  O 3   py       0.06112
 423  O 3   pz       0.03383
 424  O 3   d 1      0.00015
 425  O 3   d 2      0.00009
 426  O 3   d 3      0.00021
 427  O 3   d 4      0.00022
 428  O 3   d 5      0.00042
 429  O 3   d 1     -0.00067
 430  O 3   d 2     -0.00060
 431  O 3   d 3     -0.00133
 432  O 3   d 4     -0.00265
 433  O 3   d 5     -0.00284
 434  O 3   d 1      0.00320
 435  O 3   d 2      0.00438
 436  O 3   d 3      0.01991
 437  O 3   d 4      0.02973
 438  O 3   d 5      0.01855
 439  O 3   d 1      0.02179
 440  O 3   d 2      0.01538
 441  O 3   d 3      0.00779
 442  O 3   d 4      0.03276
 443  O 3   d 5      0.05233
 444  O 3   f 1      0.00017
 445  O 3   f 2      0.00012
 446  O 3   f 3      0.00002
 447  O 3   f 4     -0.00002
 448  O 3   f 5      0.00025
 449  O 3   f 6      0.00056
 450  O 3   f 7      0.00031
 451  O 3   f 1     -0.00070
 452  O 3   f 2     -0.00068
 453  O 3   f 3     -0.00016
 454  O 3   f 4     -0.00047
 455  O 3   f 5     -0.00332
 456  O 3   f 6     -0.00383
 457  O 3   f 7     -0.00143
 458  O 3   f 1      0.00204
 459  O 3   f 2     -0.01246
 460  O 3   f 3     -0.00643
 461  O 3   f 4      0.01310
 462  O 3   f 5     -0.01324
 463  O 3   f 6     -0.02706
 464  O 3   f 7      0.00100
 465  O 3   g 1      0.00003
 466  O 3   g 2      0.00005
 467  O 3   g 3     -0.00023
 468  O 3   g 4     -0.00008
 469  O 3   g 5      0.00023
 470  O 3   g 6      0.00011
 471  O 3   g 7     -0.00014
 472  O 3   g 8      0.00011
 473  O 3   g 9      0.00004
 474  O 3   g 1      0.00052
 475  O 3   g 2     -0.00068
 476  O 3   g 3      0.00256
 477  O 3   g 4      0.00131
 478  O 3   g 5     -0.00282
 479  O 3   g 6      0.00296
 480  O 3   g 7      0.00435
 481  O 3   g 8     -0.00027
 482  O 3   g 9      0.00105
 483  O 3   h 1      0.00011
 484  O 3   h 2     -0.00034
 485  O 3   h 3      0.00001
 486  O 3   h 4     -0.00016
 487  O 3   h 5     -0.00015
 488  O 3   h 6      0.00004
 489  O 3   h 7     -0.00028
 490  O 3   h 8     -0.00009
 491  O 3   h 9     -0.00014
 492  O 3   h10     -0.00041
 493  O 3   h11      0.00006
 494  H 5   s       -0.00388
 495  H 5   s       -0.00306
 496  H 5   s       -0.16196
 497  H 5   s        0.19188
 498  H 5   s       -1.22030
 499  H 5   px      -0.00293
 500  H 5   py      -0.00056
 501  H 5   pz       0.00164
 502  H 5   px       0.00621
 503  H 5   py       0.00084
 504  H 5   pz      -0.00602
 505  H 5   px      -0.01364
 506  H 5   py      -0.00119
 507  H 5   pz       0.03743
 508  H 5   px      -0.08200
 509  H 5   py      -0.01089
 510  H 5   pz      -0.03320
 511  H 5   d 1      0.00032
 512  H 5   d 2      0.00012
 513  H 5   d 3     -0.00043
 514  H 5   d 4      0.00073
 515  H 5   d 5      0.00075
 516  H 5   d 1     -0.00239
 517  H 5   d 2     -0.00083
 518  H 5   d 3      0.00424
 519  H 5   d 4     -0.00554
 520  H 5   d 5     -0.00556
 521  H 5   d 1      0.00787
 522  H 5   d 2     -0.00352
 523  H 5   d 3     -0.00502
 524  H 5   d 4     -0.01153
 525  H 5   d 5      0.02609
 526  H 5   f 1      0.00046
 527  H 5   f 2     -0.00004
 528  H 5   f 3     -0.00001
 529  H 5   f 4     -0.00031
 530  H 5   f 5     -0.00039
 531  H 5   f 6      0.00029
 532  H 5   f 7      0.00072
 533  H 5   f 1     -0.00177
 534  H 5   f 2      0.00146
 535  H 5   f 3     -0.00056
 536  H 5   f 4     -0.00122
 537  H 5   f 5     -0.00115
 538  H 5   f 6      0.00282
 539  H 5   f 7     -0.00417
 540  H 5   g 1     -0.00002
 541  H 5   g 2     -0.00005
 542  H 5   g 3      0.00002
 543  H 5   g 4      0.00004
 544  H 5   g 5     -0.00016
 545  H 5   g 6      0.00022
 546  H 5   g 7      0.00017
 547  H 5   g 8     -0.00019
 548  H 5   g 9      0.00013
 549  H 6   s       -0.00150
 550  H 6   s        0.00602
 551  H 6   s       -0.30558
 552  H 6   s       -0.46352
 553  H 6   s        0.30794
 554  H 6   px       0.00017
 555  H 6   py      -0.00022
 556  H 6   pz       0.00001
 557  H 6   px      -0.00062
 558  H 6   py       0.00008
 559  H 6   pz      -0.00134
 560  H 6   px      -0.04784
 561  H 6   py       0.03641
 562  H 6   pz      -0.11462
 563  H 6   px      -0.13105
 564  H 6   py       0.08142
 565  H 6   pz      -0.17319
 566  H 6   d 1     -0.00055
 567  H 6   d 2     -0.00019
 568  H 6   d 3      0.00012
 569  H 6   d 4      0.00051
 570  H 6   d 5      0.00029
 571  H 6   d 1      0.00604
 572  H 6   d 2      0.00646
 573  H 6   d 3     -0.01085
 574  H 6   d 4     -0.01319
 575  H 6   d 5     -0.00279
 576  H 6   d 1      0.01266
 577  H 6   d 2      0.03218
 578  H 6   d 3     -0.03141
 579  H 6   d 4     -0.01917
 580  H 6   d 5     -0.00041
 581  H 6   f 1      0.00028
 582  H 6   f 2      0.00032
 583  H 6   f 3      0.00021
 584  H 6   f 4     -0.00035
 585  H 6   f 5     -0.00147
 586  H 6   f 6     -0.00049
 587  H 6   f 7      0.00042
 588  H 6   f 1      0.00178
 589  H 6   f 2      0.00773
 590  H 6   f 3      0.00652
 591  H 6   f 4     -0.00294
 592  H 6   f 5     -0.00344
 593  H 6   f 6      0.00027
 594  H 6   f 7     -0.00159
 595  H 6   g 1      0.00008
 596  H 6   g 2      0.00040
 597  H 6   g 3      0.00075
 598  H 6   g 4      0.00025
 599  H 6   g 5     -0.00001
 600  H 6   g 6     -0.00043
 601  H 6   g 7      0.00003
 602  H 6   g 8      0.00019
 603  H 6   g 9      0.00003
 604  O 4   s       -0.00078
 605  O 4   s       -0.01196
 606  O 4   s       -0.00389
 607  O 4   s        0.01738
 608  O 4   s       -0.08976
 609  O 4   s       -0.61790
 610  O 4   px       0.00502
 611  O 4   py      -0.00967
 612  O 4   pz       0.00453
 613  O 4   px       0.00990
 614  O 4   py      -0.01648
 615  O 4   pz       0.00564
 616  O 4   px       0.00117
 617  O 4   py      -0.02260
 618  O 4   pz       0.00815
 619  O 4   px      -0.09015
 620  O 4   py      -0.01230
 621  O 4   pz       0.14544
 622  O 4   px      -0.00843
 623  O 4   py      -0.01635
 624  O 4   pz       0.16637
 625  O 4   d 1      0.00003
 626  O 4   d 2     -0.00009
 627  O 4   d 3     -0.00009
 628  O 4   d 4     -0.00009
 629  O 4   d 5     -0.00017
 630  O 4   d 1     -0.00070
 631  O 4   d 2      0.00013
 632  O 4   d 3      0.00028
 633  O 4   d 4      0.00035
 634  O 4   d 5      0.00094
 635  O 4   d 1      0.00223
 636  O 4   d 2     -0.00038
 637  O 4   d 3      0.00016
 638  O 4   d 4     -0.00006
 639  O 4   d 5     -0.01047
 640  O 4   d 1      0.00792
 641  O 4   d 2      0.00331
 642  O 4   d 3     -0.03543
 643  O 4   d 4     -0.01254
 644  O 4   d 5     -0.04741
 645  O 4   f 1      0.00000
 646  O 4   f 2     -0.00001
 647  O 4   f 3      0.00006
 648  O 4   f 4      0.00003
 649  O 4   f 5     -0.00008
 650  O 4   f 6      0.00002
 651  O 4   f 7      0.00015
 652  O 4   f 1     -0.00013
 653  O 4   f 2     -0.00003
 654  O 4   f 3     -0.00035
 655  O 4   f 4     -0.00033
 656  O 4   f 5      0.00053
 657  O 4   f 6      0.00013
 658  O 4   f 7     -0.00099
 659  O 4   f 1      0.00091
 660  O 4   f 2     -0.00297
 661  O 4   f 3     -0.00225
 662  O 4   f 4      0.00925
 663  O 4   f 5      0.01401
 664  O 4   f 6      0.00773
 665  O 4   f 7     -0.00676
 666  O 4   g 1      0.00000
 667  O 4   g 2     -0.00002
 668  O 4   g 3     -0.00007
 669  O 4   g 4     -0.00004
 670  O 4   g 5      0.00018
 671  O 4   g 6      0.00011
 672  O 4   g 7      0.00007
 673  O 4   g 8     -0.00002
 674  O 4   g 9      0.00007
 675  O 4   g 1      0.00004
 676  O 4   g 2      0.00018
 677  O 4   g 3      0.00075
 678  O 4   g 4      0.00065
 679  O 4   g 5     -0.00189
 680  O 4   g 6     -0.00196
 681  O 4   g 7     -0.00029
 682  O 4   g 8      0.00051
 683  O 4   g 9     -0.00111
 684  O 4   h 1     -0.00002
 685  O 4   h 2     -0.00001
 686  O 4   h 3     -0.00003
 687  O 4   h 4     -0.00011
 688  O 4   h 5     -0.00011
 689  O 4   h 6      0.00018
 690  O 4   h 7      0.00020
 691  O 4   h 8      0.00005
 692  O 4   h 9      0.00003
 693  O 4   h10      0.00005
 694  O 4   h11     -0.00010
 695  H 7   s       -0.00023
 696  H 7   s        0.00311
 697  H 7   s        0.12138
 698  H 7   s        0.27200
 699  H 7   s        0.29696
 700  H 7   px       0.00004
 701  H 7   py       0.00019
 702  H 7   pz      -0.00061
 703  H 7   px      -0.00061
 704  H 7   py      -0.00062
 705  H 7   pz       0.00237
 706  H 7   px       0.02266
 707  H 7   py       0.00765
 708  H 7   pz       0.02252
 709  H 7   px       0.01447
 710  H 7   py       0.00727
 711  H 7   pz       0.00080
 712  H 7   d 1     -0.00049
 713  H 7   d 2     -0.00010
 714  H 7   d 3      0.00025
 715  H 7   d 4     -0.00020
 716  H 7   d 5     -0.00005
 717  H 7   d 1      0.00204
 718  H 7   d 2      0.00079
 719  H 7   d 3      0.00041
 720  H 7   d 4      0.00372
 721  H 7   d 5      0.00104
 722  H 7   d 1     -0.00264
 723  H 7   d 2      0.00201
 724  H 7   d 3     -0.00606
 725  H 7   d 4     -0.00475
 726  H 7   d 5      0.00159
 727  H 7   f 1     -0.00009
 728  H 7   f 2      0.00003
 729  H 7   f 3      0.00015
 730  H 7   f 4      0.00001
 731  H 7   f 5      0.00045
 732  H 7   f 6      0.00040
 733  H 7   f 7      0.00003
 734  H 7   f 1      0.00056
 735  H 7   f 2      0.00065
 736  H 7   f 3      0.00048
 737  H 7   f 4     -0.00179
 738  H 7   f 5     -0.00255
 739  H 7   f 6     -0.00099
 740  H 7   f 7      0.00035
 741  H 7   g 1      0.00003
 742  H 7   g 2      0.00002
 743  H 7   g 3      0.00008
 744  H 7   g 4      0.00009
 745  H 7   g 5     -0.00010
 746  H 7   g 6     -0.00020
 747  H 7   g 7     -0.00004
 748  H 7   g 8      0.00002
 749  H 7   g 9      0.00000
 750  H 8   s       -0.00007
 751  H 8   s       -0.00130
 752  H 8   s        0.11176
 753  H 8   s        0.34375
 754  H 8   s       -0.25278
 755  H 8   px      -0.00030
 756  H 8   py       0.00022
 757  H 8   pz      -0.00009
 758  H 8   px       0.00104
 759  H 8   py      -0.00178
 760  H 8   pz       0.00079
 761  H 8   px      -0.05032
 762  H 8   py       0.01297
 763  H 8   pz       0.00553
 764  H 8   px      -0.11214
 765  H 8   py       0.00801
 766  H 8   pz      -0.00150
 767  H 8   d 1      0.00026
 768  H 8   d 2      0.00014
 769  H 8   d 3     -0.00006
 770  H 8   d 4     -0.00002
 771  H 8   d 5     -0.00001
 772  H 8   d 1     -0.00225
 773  H 8   d 2     -0.00033
 774  H 8   d 3     -0.00187
 775  H 8   d 4     -0.00130
 776  H 8   d 5      0.00340
 777  H 8   d 1     -0.00454
 778  H 8   d 2      0.00110
 779  H 8   d 3     -0.00542
 780  H 8   d 4      0.00037
 781  H 8   d 5      0.01315
 782  H 8   f 1      0.00026
 783  H 8   f 2     -0.00008
 784  H 8   f 3     -0.00006
 785  H 8   f 4     -0.00011
 786  H 8   f 5      0.00041
 787  H 8   f 6      0.00011
 788  H 8   f 7     -0.00026
 789  H 8   f 1      0.00062
 790  H 8   f 2     -0.00004
 791  H 8   f 3     -0.00008
 792  H 8   f 4     -0.00009
 793  H 8   f 5     -0.00025
 794  H 8   f 6     -0.00026
 795  H 8   f 7     -0.00069
 796  H 8   g 1     -0.00008
 797  H 8   g 2      0.00002
 798  H 8   g 3      0.00002
 799  H 8   g 4     -0.00003
 800  H 8   g 5      0.00000
 801  H 8   g 6      0.00003
 802  H 8   g 7     -0.00004
 803  H 8   g 8      0.00005
 804  H 8   g 9     -0.00001

          Ground-State Mulliken Net Atomic Charges

     Atom                 Charge (a.u.)
  ----------------------------------------
      1 O                    -0.727230
      2 O                    -0.670860
      3 H                     0.342332
      4 H                     0.351179
      5 H                     0.372157
      6 H                     0.375789
      7 O                    -0.637007
      8 H                     0.264142
      9 H                     0.344204
     10 O                    -0.650674
     11 H                     0.328670
     12 H                     0.307297
  ----------------------------------------
  Sum of atomic charges =     0.000000

 -----------------------------------------------------------------
                    Cartesian Multipole Moments
 -----------------------------------------------------------------
    Charge (ESU x 10^10)
                 0.0000
    Dipole Moment (Debye)
         X      -0.9160      Y      -3.4378      Z      -4.5687
       Tot       5.7905
    Quadrupole Moments (Debye-Ang)
        XX     -18.1855     XY       2.3952     YY     -26.2868
        XZ       2.5822     YZ       6.6661     ZZ     -31.3459
    Octopole Moments (Debye-Ang^2)
       XXX       1.5410    XXY      -0.6818    XYY      -0.7642
       YYY     -17.7400    XXZ      -9.2731    XYZ     -14.3542
       YYZ     -13.2076    XZZ       0.1255    YZZ      -5.3784
       ZZZ     -18.4633
    Hexadecapole Moments (Debye-Ang^3)
      XXXX    -152.5757   XXXY     -43.4668   XXYY     -71.6595
      XYYY     -88.5057   YYYY    -333.5494   XXXZ     -27.5408
      XXYZ      17.8722   XYYZ      -3.0329   YYYZ      57.3313
      XXZZ     -86.2023   XYZZ     -38.0538   YYZZ    -106.4234
      XZZZ     -39.4511   YZZZ      39.9954   ZZZZ    -282.2340
 -----------------------------------------------------------------
 Total job time:  1435.82s(wall), 45178.20s(cpu) 
 Tue Jan 14 15:42:00 2025

        *************************************************************
        *                                                           *
        *  Thank you very much for using Q-Chem.  Have a nice day.  *
        *                                                           *
        *************************************************************


