                  Welcome to Q-Chem
     A Quantum Leap Into The Future Of Chemistry


 Q-Chem 6.2 (devel), Q-Chem, Inc., Pleasanton, CA (2024)

 E. Epifanovsky,  A. T. B. Gilbert,  Xintian Feng,  Joonho Lee,  Yuezhi Mao,  
 N. Mardirossian,  P. Pokhilko,  A. White,  M. Wormit,  M. P. Coons,  
 A. L. Dempwolff,  Zhengting Gan,  D. Hait,  P. R. Horn,  L. D. Jacobson,  
 I. Kaliman,  J. Kussmann,  A. W. Lange,  Ka Un Lao,  D. S. Levine,  Jie Liu,  
 S. C. McKenzie,  A. F. Morrison,  K. D. Nanda,  F. Plasser,  D. R. Rehn,  
 M. L. Vidal,  Zhi-Qiang You,  Ying Zhu,  Huseyin Aksu,  B. Alam,  
 B. Albrecht,  A. Aldossary,  E. Alguire,  J. H. Andersen,  
 J. E. Arias-Martinez,  V. Athavale,  D. Barton,  K. Begam,  A. Behn,  
 N. Bellonzi,  Y. A. Bernard,  E. J. Berquist,  H. Burton,  A. Carreras,  
 K. Carter-Fenk,  Mathew Chow,  Romit Chakraborty,  Chandrima Chakravarty,  
 Junhan Chen,  A. D. Chien,  K. D. Closser,  V. Cofer-Shabica,  L. Cunha,  
 S. Dasgupta,  Jia Deng,  Joseph Dickinson,  M. de Wergifosse,  
 M. Diedenhofen,  Hainam Do,  Wenjie Dou,  S. Ehlert,  Po-Tung Fang,  
 S. Fatehi,  Qingguo Feng,  Jonathan Fetherolf,  T. Friedhoff,  
 Thomas Froitzheim,  Sarai Folkestad,  B. Ganoe,  J. Gayvert,  Qinghui Ge,  
 G. Gidofalvi,  M. Gimferrer,  M. Goldey,  Montgomery Gray,  J. Gomes,  
 C. Gonzalez-Espinoza,  S. Gulania,  A. Gunina,  J. A. Gyamfi,  
 M. W. D. Hanson-Heine,  P. H. P. Harbach,  A. W. Hauser,  M. F. Herbst,  
 M. Hernandez Vera,  M. Hodecker,  Z. C. Holden,  S. Houck,  Xunkun Huang,  
 Kerwin Hui,  B. C. Huynh,  K. Ikeda,  M. Ivanov,  Nayanthara K. Jayadev,  
 Hyunjun Ji,  Zuxin Jin,  Hanjie Jiang,  Subrata Jana,  B. Kaduk,  
 S. Kaehler,  R. Kang,  K. Khistyaev,  Jaehoon Kim,  Yongbin Kim,  
 P. Klunzinger,  Z. Koczor-Benda,  Joong Hoon Koh,  D. Kosenkov,  
 Saikiran Kotaru,  L. Koulias,  T. Kowalczyk,  C. M. Krauter,  K. Kue,  
 A. Kunitsa,  T. Kus,  A. Landau,  K. V. Lawler,  D. Lefrancois,  S. Lehtola,  
 Rain Li,  Shaozhi Li,  Tao E. Li,  Yi-Pei Li,  Jiashu Liang,  M. Liebenthal,  
 Hung-Hsuan Lin,  You-Sheng Lin,  Fenglai Liu,  Kuan-Yu Liu,  Xiao Liu,  
 M. Loipersberger,  A. Luenser,  C. Malbon,  Aniket Mandal,  Manisha,  
 A. Manjanath,  P. Manohar,  E. Mansoor,  S. F. Manzer,  Shan-Ping Mao,  
 A. V. Marenich,  T. Markovich,  S. Mason,  F. Matz,  S. A. Maurer,  
 Samuel May,  Alexandra McIsaac,  P. F. McLaughlin,  M. F. S. J. Menger,  
 J.-M. Mewes,  S. A. Mewes,  P. Morgante,  Mohammad Mostafanejad,  
 Madhubani Mukherjee,  J. W. Mullinax,  Quyen Nguyen,  Avik Kumar Ojha,  
 K. J. Oosterbaan,  Eno Paenurk,  Xiaoliang Pan,  G. Paran,  V. Parravicini,  
 Alexander C. Paul,  Suranjan K. Paul,  F. Pavosevic,  Zheng Pei,  S. Prager,  
 E. I. Proynov,  E. Ramos,  B. Rana,  A. E. Rask,  A. Rettig,  R. M. Richard,  
 F. Rob,  E. Rossomme,  T. Scheele,  M. Scheurer,  M. Schneider,  
 P. E. Schneider,  Tim K. Schramm,  N. Sergueev,  S. M. Sharada,  
 Hengyuan Shen,  W. Skomorowski,  D. W. Small,  C. J. Stein,  
 Alistair J. Sterling,  Yingli Su,  Yu-Chuan Su,  E. J. Sundstrom,  
 J. Talbot,  Zhen Tao,  J. Thirman,  Hung-Yi Tsai,  T. Tsuchimochi,  
 N. M. Tubman,  C. Utku,  S. P. Veccham,  O. Vydrov,  Rahel Weiss,  
 J. Wenzel,  Jonathan Wong,  J. Witte,  H. Wu,  Yanze Wu,  A. Yamada,  
 Chou-Hsun Yang,  Kun Yao,  S. Yeganeh,  S. R. Yost,  Qi Yu,  A. Zech,  
 F. Zeller,  Chongxiao Zhao,  Igor Ying Zhang,  Xing Zhang,  Yu Zhang,  
 D. Zuev,  A. Aspuru-Guzik,  A. T. Bell,  N. A. Besley,  K. B. Bravaya,  
 B. R. Brooks,  D. Casanova,  Jeng-Da Chai,  Hsing-Ta Chen,  S. Coriani,  
 C. J. Cramer,  A. E. DePrince, III,  R. A. DiStasio Jr.,  A. Dreuw,  
 B. D. Dunietz,  T. R. Furlani,  W. A. Goddard III,  S. Grimme,  
 S. Hammes-Schiffer,  T. Head-Gordon,  W. J. Hehre,  Chao-Ping Hsu,  
 T.-C. Jagau,  Yousung Jung,  A. Klamt,  Jing Kong,  D. S. Lambrecht,  
 Xiangyuan Li,  WanZhen Liang,  N. J. Mayhall,  C. W. McCurdy,  J. B. Neaton,  
 T. Neudecker,  C. Ochsenfeld,  J. A. Parkhill,  R. Peverati,  
 V. A. Rassolov,  Haisheng Ren,  Yihan Shao,  L. V. Slipchenko,  
 R. P. Steele,  J. E. Subotnik,  A. J. W. Thom,  A. Tkatchenko,  
 D. G. Truhlar,  T. Van Voorhis,  Fan Wang,  T. A. Wesolowski,  K. B. Whaley,  
 H. L. Woodcock III,  P. M. Zimmerman,  S. Faraji,  P. M. W. Gill,  
 M. Head-Gordon,  J. M. Herbert,  A. I. Krylov

 Contributors to earlier versions of Q-Chem not listed above: 
 R. D. Adamson,  B. Austin,  R. Baer,  J. Baker,  G. J. O. Beran,  
 K. Brandhorst,  S. T. Brown,  E. F. C. Byrd,  Arup K. Chakraborty,  
 G. K. L. Chan,  Chun-Min Chang,  Yunqing Chen,  C.-L. Cheng,  
 Siu Hung Chien,  D. M. Chipman,  D. L. Crittenden,  H. Dachsel,  
 R. J. Doerksen,  A. D. Dutoi,  R. G. Edgar,  J. Fosso-Tande,  
 L. Fusti-Molnar,  D. Ghosh,  A. Ghysels,  A. Golubeva-Zadorozhnaya,  
 J. Gonthier,  M. S. Gordon,  S. R. Gwaltney,  G. Hawkins,  J. E. Herr,  
 A. Heyden,  S. Hirata,  E. G. Hohenstein,  G. Kedziora,  F. J. Keil,  
 C. Kelley,  Jihan Kim,  R. A. King,  R. Z. Khaliullin,  P. P. Korambath,  
 W. Kurlancheek,  A. Laurent,  A. M. Lee,  M. S. Lee,  S. V. Levchenko,  
 Ching Yeh Lin,  D. Liotard,  E. Livshits,  R. C. Lochan,  I. Lotan,  
 L. A. Martinez-Martinez,  P. E. Maslen,  N. Nair,  D. P. O'Neill,  
 D. Neuhauser,  E. Neuscamman,  C. M. Oana,  R. Olivares-Amaya,  R. Olson,  
 T. M. Perrine,  B. Peters,  P. A. Pieniazek,  A. Prociuk,  Y. M. Rhee,  
 J. Ritchie,  M. A. Rohrdanz,  E. Rosta,  N. J. Russ,  H. F. Schaefer III,  
 M. W. Schmidt,  N. E. Schultz,  S. Sharma,  N. Shenvi,  C. D. Sherrill,  
 A. C. Simmonett,  A. Sodt,  T. Stein,  D. Stuck,  K. S. Thanthiriwatte,  
 V. Vanovschi,  L. Vogt,  Tao Wang,  A. Warshel,  M. A. Watson,  
 C. F. Williams,  Q. Wu,  X. Xu,  Jun Yang,  W. Zhang,  Yan Zhao

   Please cite Q-Chem as follows:
  "Software for the frontiers of quantum chemistry:
   An overview of developments in the Q-Chem 5 package"
   J. Chem. Phys. 155, 084801 (2021)
   https://doi.org/10.1063/5.0055522 (open access)

 Q-Chem 6.2.2 for Intel X86 EM64T Linux

 Parts of Q-Chem use Armadillo 9.900.5 (Nocturnal Misbehaviour).
 http://arma.sourceforge.net/

 Q-Chem begins on Tue Dec 17 21:33:43 2024  

 Host: compute-0-8.local
0

     Scratch files written to /scratch/keith/A1D0_1//
 Processing $rem in /home/keith/software/qchem/qchem_622/config/preferences:
 Processing $rem in /home/keith/.qchemrc:

 Checking the input file for inconsistencies... 	...done.

--------------------------------------------------------------
User input:
--------------------------------------------------------------
$molecule
0 1
O -0.22545 -0.18402 0.17433
O -0.92581 1.13098 -1.81367
H -1.10698 0.76098 -2.69667
H -0.12816 1.68398 -1.94667
H -0.67032 -0.96992 0.47733
H -0.55514 0.08098 -0.66067
O -0.51898 -3.48152 0.01833
H 0.25974 -2.87942 0.11033
H -1.13188 -3.11452 -0.60867
O 2.06904 -2.34862 -0.32067
H 2.66834 -2.97212 0.10533
H 2.43524 -1.44312 -0.26167
O 2.47804 0.54998 0.36633
H 1.53624 0.52998 0.41633
H 2.57974 1.09998 -0.46167
O 0.36174 2.23798 2.43833
H -0.16136 1.73998 1.81333
H 1.07754 1.58798 2.69733
O -3.29446 2.07498 -0.65167
H -3.44176 2.62798 -1.40667
H -2.47436 1.58898 -0.93167
$end

$rem
method                    b3lyp 
basis                     cc-pv5z 
mem_total                 48000
mem_static                8000
thresh                    12
scf_convergence           8
xc_grid                   000075000302
max_scf_cycles            2000
symmetry                  false
sym_ignore                true
print_orbitals true
$end
gui                       2
molden_format true
--------------------------------------------------------------
 ----------------------------------------------------------------
             Standard Nuclear Orientation (Angstroms)
    I     Atom           X                Y                Z
 ----------------------------------------------------------------
    1      O      -0.2254500000    -0.1840200000     0.1743300000
    2      O      -0.9258100000     1.1309800000    -1.8136700000
    3      H      -1.1069800000     0.7609800000    -2.6966700000
    4      H      -0.1281600000     1.6839800000    -1.9466700000
    5      H      -0.6703200000    -0.9699200000     0.4773300000
    6      H      -0.5551400000     0.0809800000    -0.6606700000
    7      O      -0.5189800000    -3.4815200000     0.0183300000
    8      H       0.2597400000    -2.8794200000     0.1103300000
    9      H      -1.1318800000    -3.1145200000    -0.6086700000
   10      O       2.0690400000    -2.3486200000    -0.3206700000
   11      H       2.6683400000    -2.9721200000     0.1053300000
   12      H       2.4352400000    -1.4431200000    -0.2616700000
   13      O       2.4780400000     0.5499800000     0.3663300000
   14      H       1.5362400000     0.5299800000     0.4163300000
   15      H       2.5797400000     1.0999800000    -0.4616700000
   16      O       0.3617400000     2.2379800000     2.4383300000
   17      H      -0.1613600000     1.7399800000     1.8133300000
   18      H       1.0775400000     1.5879800000     2.6973300000
   19      O      -3.2944600000     2.0749800000    -0.6516700000
   20      H      -3.4417600000     2.6279800000    -1.4066700000
   21      H      -2.4743600000     1.5889800000    -0.9316700000
 ----------------------------------------------------------------
 Nuclear Repulsion Energy =         349.41353692 hartrees
 There are       35 alpha and       35 beta electrons
 Requested basis set is cc-pV5Z
 There are 357 shells and 1407 basis functions

 Total QAlloc Memory Limit  48000 MB
 Mega-Array Size      7821 MB
 MEM_STATIC part      8000 MB

 A cutoff of  1.0D-12 yielded  38887 shell pairs
 There are    511623 function pairs (    845599 Cartesian)
 Smallest overlap matrix eigenvalue = 2.13E-05

 Scale SEOQF with 1.000000e-01/1.000000e-01/1.000000e-01

 Standard Electronic Orientation quadrupole field applied
 Nucleus-field energy     =     0.0000000166 hartrees
 Guess from superposition of atomic densities
 Warning:  Energy on first SCF cycle will be non-variational
 SAD guess density has 70.000000 electrons

 -----------------------------------------------------------------------
  General SCF calculation program by
  Eric Jon Sundstrom, Paul Horn, Yuezhi Mao, Dmitri Zuev, Alec White,
  David Stuck, Shaama M.S., Shane Yost, Joonho Lee, David Small,
  Daniel Levine, Susi Lehtola, Hugh Burton, Evgeny Epifanovsky,
  Bang C. Huynh
 -----------------------------------------------------------------------
 Exchange:     0.2000 Hartree-Fock + 0.0800 Slater + 0.7200 B88
 Correlation:  0.1900 VWN1RPA + 0.8100 LYP
 Using Euler-Maclaurin-Lebedev (75,302) quadrature formula
 A restricted SCF calculation will be
 performed using DIIS
 SCF converges when DIIS error is below 1.0e-08
 ---------------------------------------
  Cycle       Energy         DIIS error
 ---------------------------------------
    1    -535.1355904172      6.24e-03  
    2    -534.8791176807      1.61e-03  
    3    -534.3803598577      2.36e-03  
    4    -535.3295640486      9.09e-05  
    5    -535.3298886823      8.07e-05  
    6    -535.3309148227      8.17e-06  
    7    -535.3309247638      1.87e-06  
    8    -535.3309250319      1.41e-06  
    9    -535.3309253499      9.84e-08  
   10    -535.3309253513      4.07e-08  
   11    -535.3309253515      1.97e-08  
   12    -535.3309253516      1.33e-09  Convergence criterion met
 ---------------------------------------
 SCF time:   CPU 211254.18s  wall 6690.00s 
 SCF   energy =  -535.33092535
 Total energy =  -535.33092535

 --------------------------------------------------------------

                    Orbital Energies (a.u.)
 --------------------------------------------------------------

 Alpha MOs
 -- Occupied --
-19.2193 -19.1449 -19.1354 -19.1338 -19.1187 -19.1168 -19.1125  -1.1059
 -1.0393  -1.0280  -1.0152  -1.0042  -0.9945  -0.9944  -0.6177  -0.5867
 -0.5483  -0.5375  -0.5291  -0.5273  -0.5102  -0.4800  -0.4370  -0.4211
 -0.4047  -0.3952  -0.3812  -0.3771  -0.3681  -0.3445  -0.3315  -0.3256
 -0.3102  -0.3050  -0.3031
 -- Virtual --
 -0.0666  -0.0158  -0.0057   0.0170   0.0237   0.0306   0.0415   0.0710
  0.0851   0.0965   0.1030   0.1178   0.1279   0.1419   0.1697   0.1764
  0.1818   0.1847   0.1971   0.2122   0.2175   0.2235   0.2250   0.2329
  0.2349   0.2365   0.2395   0.2494   0.2535   0.2584   0.2664   0.2703
  0.2796   0.2801   0.2936   0.3031   0.3107   0.3125   0.3204   0.3230
  0.3337   0.3380   0.3444   0.3545   0.3698   0.3749   0.3763   0.3908
  0.3981   0.4081   0.4287   0.4353   0.4429   0.4573   0.4655   0.4681
  0.4746   0.4842   0.5020   0.5179   0.5236   0.5258   0.5548   0.5583
  0.5718   0.5886   0.5936   0.6000   0.6100   0.6296   0.6407   0.6566
  0.6629   0.6634   0.6730   0.6775   0.6954   0.7002   0.7074   0.7199
  0.7235   0.7267   0.7357   0.7447   0.7501   0.7588   0.7609   0.7651
  0.7719   0.7889   0.7931   0.7988   0.8173   0.8218   0.8283   0.8341
  0.8497   0.8507   0.8644   0.8736   0.8758   0.8804   0.8998   0.9162
  0.9300   0.9455   0.9595   0.9710   0.9759   0.9954   0.9990   1.0005
  1.0216   1.0230   1.0319   1.0350   1.0495   1.0559   1.0661   1.0741
  1.0863   1.0900   1.0977   1.1082   1.1118   1.1244   1.1435   1.1516
  1.1647   1.1686   1.1753   1.1771   1.1922   1.1994   1.2025   1.2130
  1.2483   1.2488   1.2609   1.2777   1.2904   1.2961   1.3075   1.3172
  1.3216   1.3286   1.3360   1.3464   1.3648   1.3673   1.3857   1.3924
  1.4031   1.4267   1.4302   1.4417   1.4521   1.4580   1.4680   1.4899
  1.5072   1.5114   1.5210   1.5258   1.5371   1.5419   1.5476   1.5567
  1.5683   1.5733   1.5803   1.5887   1.6045   1.6128   1.6185   1.6221
  1.6357   1.6475   1.6546   1.6630   1.6675   1.6807   1.6834   1.6882
  1.6961   1.7111   1.7149   1.7276   1.7358   1.7450   1.7521   1.7584
  1.7647   1.7686   1.7741   1.7787   1.7918   1.8038   1.8124   1.8246
  1.8273   1.8315   1.8345   1.8447   1.8466   1.8540   1.8634   1.8713
  1.8853   1.8882   1.9027   1.9046   1.9149   1.9200   1.9286   1.9357
  1.9503   1.9611   1.9748   1.9824   1.9880   1.9980   2.0026   2.0138
  2.0218   2.0279   2.0328   2.0405   2.0469   2.0617   2.0658   2.0702
  2.0973   2.1005   2.1062   2.1141   2.1353   2.1469   2.1646   2.1745
  2.1826   2.1865   2.1941   2.2065   2.2341   2.2468   2.2571   2.2668
  2.2842   2.2881   2.2919   2.3018   2.3061   2.3316   2.3357   2.3468
  2.3540   2.3655   2.3749   2.3815   2.3865   2.3990   2.4121   2.4199
  2.4345   2.4540   2.4566   2.4648   2.4794   2.5082   2.5112   2.5173
  2.5338   2.5489   2.5541   2.5753   2.5886   2.6082   2.6176   2.6256
  2.6394   2.6510   2.6685   2.6717   2.6881   2.6921   2.7018   2.7186
  2.7379   2.7405   2.7535   2.7720   2.7766   2.7909   2.7988   2.8011
  2.8155   2.8302   2.8336   2.8498   2.8533   2.8695   2.8771   2.8900
  2.9018   2.9150   2.9166   2.9271   2.9322   2.9529   2.9571   2.9757
  2.9959   3.0006   3.0110   3.0249   3.0321   3.0427   3.0554   3.0609
  3.0759   3.0896   3.1052   3.1155   3.1178   3.1211   3.1334   3.1486
  3.1694   3.1841   3.2012   3.2137   3.2291   3.2447   3.2537   3.2712
  3.2843   3.2905   3.2970   3.3131   3.3238   3.3374   3.3419   3.3669
  3.3730   3.3831   3.3989   3.4167   3.4325   3.4400   3.4481   3.4614
  3.4652   3.4694   3.4770   3.4852   3.5052   3.5333   3.5414   3.5449
  3.5676   3.5759   3.5810   3.5989   3.6031   3.6122   3.6243   3.6421
  3.6501   3.6666   3.6762   3.6853   3.6950   3.7216   3.7240   3.7266
  3.7446   3.7528   3.7661   3.7725   3.7867   3.7955   3.8059   3.8131
  3.8266   3.8390   3.8417   3.8658   3.8809   3.8919   3.8945   3.8981
  3.9129   3.9196   3.9437   3.9469   3.9575   3.9676   3.9865   3.9880
  4.0132   4.0240   4.0386   4.0510   4.0534   4.0807   4.0830   4.0903
  4.1221   4.1515   4.1770   4.1865   4.2062   4.2098   4.2239   4.2533
  4.2755   4.2920   4.2992   4.3184   4.3352   4.3422   4.3576   4.3646
  4.3800   4.3928   4.4144   4.4351   4.4435   4.4438   4.4529   4.4629
  4.4668   4.4780   4.4959   4.4977   4.5030   4.5087   4.5155   4.5257
  4.5338   4.5379   4.5464   4.5555   4.5647   4.5682   4.5784   4.5897
  4.5920   4.5957   4.6034   4.6130   4.6211   4.6247   4.6385   4.6459
  4.6599   4.6635   4.6739   4.6774   4.6814   4.6881   4.7080   4.7107
  4.7279   4.7370   4.7397   4.7469   4.7549   4.7735   4.7836   4.7914
  4.8057   4.8102   4.8228   4.8279   4.8433   4.8461   4.8537   4.8629
  4.8718   4.8835   4.8875   4.8970   4.9028   4.9163   4.9222   4.9476
  4.9533   4.9660   4.9734   4.9922   4.9976   5.0056   5.0244   5.0338
  5.0431   5.0616   5.0663   5.0790   5.0826   5.1110   5.1204   5.1300
  5.1334   5.1479   5.1591   5.1729   5.1888   5.1965   5.2115   5.2190
  5.2278   5.2404   5.2565   5.2808   5.3026   5.3208   5.3274   5.3351
  5.3465   5.3711   5.3735   5.3863   5.3959   5.4014   5.4139   5.4258
  5.4320   5.4591   5.4683   5.4882   5.5188   5.5305   5.5358   5.5712
  5.5857   5.6006   5.6193   5.6284   5.6296   5.6453   5.6543   5.6763
  5.6823   5.7175   5.7357   5.7457   5.7466   5.7939   5.8152   5.8334
  5.8526   5.8901   5.8935   5.9106   5.9225   5.9479   5.9659   6.0123
  6.0331   6.0412   6.0501   6.0715   6.0869   6.0961   6.1526   6.1690
  6.1747   6.1972   6.2063   6.2221   6.2434   6.2724   6.2766   6.2858
  6.2958   6.3100   6.3174   6.3224   6.3403   6.3484   6.3858   6.3935
  6.4012   6.4212   6.4232   6.4333   6.4664   6.5074   6.5363   6.5450
  6.5636   6.5785   6.5971   6.6118   6.6133   6.6350   6.6419   6.6576
  6.6806   6.6835   6.6993   6.7130   6.7241   6.7311   6.7467   6.7536
  6.7693   6.7727   6.7804   6.7952   6.8064   6.8154   6.8202   6.8267
  6.8362   6.8489   6.8590   6.8646   6.8832   6.8981   6.9058   6.9202
  6.9286   6.9379   6.9513   6.9572   6.9726   6.9897   7.0025   7.0031
  7.0174   7.0344   7.0404   7.0704   7.0881   7.1043   7.1052   7.1144
  7.1253   7.1483   7.1531   7.1826   7.1984   7.2030   7.2173   7.2426
  7.2546   7.2656   7.2872   7.2910   7.3108   7.3288   7.3318   7.3591
  7.3669   7.3817   7.3971   7.4057   7.4263   7.4362   7.4456   7.4680
  7.4830   7.4932   7.5084   7.5290   7.5439   7.5737   7.5885   7.6127
  7.6450   7.6467   7.6670   7.6779   7.6941   7.7151   7.7255   7.7453
  7.7571   7.7668   7.7816   7.7979   7.8078   7.8334   7.8403   7.8497
  7.8617   7.8731   7.8968   7.9134   7.9314   7.9454   7.9798   8.0043
  8.0055   8.0627   8.1180   8.1595   8.1725   8.1876   8.2061   8.2234
  8.2562   8.2638   8.3213   8.3665   8.4128   8.4661   8.4816   8.4898
  8.5296   8.5617   8.5901   8.6630   8.6802   8.7191   8.7754   8.7874
  8.9459   8.9578   8.9957   9.0133   9.0296   9.0371   9.0667   9.0815
  9.0971   9.1308   9.1510   9.1593   9.1737   9.2163   9.2417   9.2533
  9.2729   9.2877   9.3435   9.4326   9.4670   9.5986   9.6390   9.6636
  9.7075   9.7173   9.7281   9.7321   9.7635   9.7671   9.7825   9.7858
  9.8053   9.8242   9.8844   9.9120   9.9230   9.9572   9.9677  10.0203
 10.0336  10.0747  10.4967  11.6520  11.7074  11.7120  11.7207  11.7284
 11.7457  11.7482  11.7563  11.7681  11.7740  11.7840  11.7938  11.8042
 11.8125  11.8380  11.8471  11.8571  11.8596  11.8637  11.8726  11.9000
 11.9145  11.9343  11.9588  11.9695  11.9726  11.9818  11.9980  12.0124
 12.0193  12.0273  12.0389  12.0697  12.0713  12.0790  12.0895  12.1004
 12.1051  12.1158  12.1275  12.1324  12.1368  12.1519  12.1533  12.1610
 12.1689  12.1765  12.1788  12.1795  12.1870  12.1889  12.2007  12.2070
 12.2095  12.2165  12.2187  12.2240  12.2252  12.2300  12.2314  12.2358
 12.2454  12.2519  12.2586  12.2632  12.2662  12.2803  12.2868  12.2956
 12.2965  12.3089  12.3154  12.3226  12.3354  12.3372  12.3415  12.3532
 12.3604  12.3749  12.3853  12.3916  12.4097  12.4232  12.4271  12.4436
 12.4474  12.4553  12.4604  12.4704  12.4788  12.4831  12.4940  12.5097
 12.5173  12.5300  12.5387  12.5476  12.5512  12.5599  12.5667  12.5984
 12.6105  12.6171  12.6223  12.6257  12.6357  12.6510  12.6691  12.6841
 12.6927  12.7137  12.7157  12.7270  12.7349  12.7483  12.7638  12.7736
 12.7877  12.7951  12.7977  12.8022  12.8225  12.8465  12.8530  12.8665
 12.8759  12.8847  12.9057  12.9204  12.9303  12.9385  12.9545  12.9651
 12.9725  12.9874  13.0007  13.0055  13.0132  13.0663  13.0764  13.0918
 13.1039  13.1400  13.1673  13.1929  13.2060  13.2210  13.2287  13.2425
 13.2447  13.2671  13.2781  13.2852  13.2979  13.3096  13.3192  13.3273
 13.3362  13.3415  13.3436  13.3602  13.3669  13.3729  13.3768  13.3788
 13.3866  13.3897  13.4007  13.4093  13.4186  13.4330  13.4331  13.4424
 13.4507  13.4612  13.4633  13.4738  13.4839  13.4943  13.5017  13.5080
 13.5121  13.5203  13.5301  13.5383  13.5428  13.5484  13.5540  13.5588
 13.5657  13.5698  13.5723  13.5894  13.5944  13.6016  13.6076  13.6128
 13.6240  13.6337  13.6368  13.6395  13.6478  13.6591  13.6601  13.6788
 13.6808  13.7005  13.7097  13.7201  13.7274  13.7295  13.7437  13.7697
 13.7800  13.8175  13.8243  13.8380  13.8537  13.8576  13.8666  13.8815
 13.8881  13.9120  13.9189  13.9324  13.9436  13.9530  13.9740  13.9884
 14.0033  14.0089  14.0117  14.0501  14.0862  14.1015  14.1154  14.1271
 14.1448  14.1489  14.1614  14.1852  14.2054  14.2147  14.2279  14.2346
 14.2452  14.2623  14.2782  14.2919  14.3157  14.3196  14.3376  14.3547
 14.3659  14.3761  14.4122  14.4632  14.4772  14.4974  14.5440  14.5740
 14.5921  14.6048  14.6166  14.6378  14.6705  14.6811  14.7375  14.7408
 14.8037  14.9387  14.9902  15.0651  15.1412  15.1668  15.2096  15.2520
 15.3358  15.3479  15.3586  15.3983  15.4305  15.4578  15.4956  15.5087
 15.5284  15.5409  15.5529  15.5936  15.6083  15.6133  15.6284  15.6539
 15.7051  15.7457  15.7549  15.7723  15.7779  15.7983  15.8033  15.8067
 15.8375  15.8888  15.8967  15.9119  15.9221  15.9436  15.9827  15.9830
 15.9912  16.0063  16.0281  16.0639  16.0733  16.0873  16.0900  16.1017
 16.1102  16.1142  16.1212  16.1316  16.1436  16.1511  16.1590  16.1744
 16.1770  16.1837  16.1946  16.2080  16.2144  16.2311  16.2415  16.2545
 16.2559  16.2755  16.2837  16.2900  16.2980  16.3239  16.3294  16.3430
 16.3505  16.3720  16.3807  16.3880  16.4246  16.4314  16.4373  16.4543
 16.4808  16.4919  16.5168  16.5358  16.5552  16.6275  16.6667  16.6736
 16.7059  16.8013  16.8489  16.8782  16.9072  16.9215  16.9609  16.9803
 16.9971  17.0265  17.0435  17.0471  17.0625  17.0883  17.1148  17.1398
 17.1445  17.1750  17.2093  17.2122  17.2245  17.2293  17.2421  17.2794
 17.2939  17.2978  17.3260  17.3384  17.3500  17.3833  17.4114  17.4279
 17.4390  17.4488  17.4932  17.5297  17.5433  17.5467  17.5606  17.5726
 17.5983  17.6043  17.6241  17.6618  17.6669  17.6762  17.7053  17.7241
 17.7396  17.7552  17.7809  17.8098  17.8198  17.8674  17.9389  17.9917
 18.0154  18.0555  18.0833  18.1121  18.1266  18.1352  18.1528  18.1723
 18.1766  18.1803  18.2019  18.2061  18.2228  18.2319  18.2614  18.2874
 18.3073  18.3189  18.3258  18.3399  18.3599  18.3742  18.4110  18.4227
 18.4260  18.4342  18.4513  18.4624  18.4653  18.4741  18.4902  18.5245
 18.5515  18.5661  18.5796  18.5934  18.6547  18.6567  18.7198  18.7265
 18.7373  18.7550  18.7960  18.7981  18.8266  18.8426  18.8594  18.8758
 18.8913  18.9200  18.9393  18.9590  18.9727  19.0074  19.0103  19.0245
 19.0640  19.1481  19.2216  19.2846  19.2974  19.3073  19.3092  19.3523
 19.3566  19.3681  19.3809  19.4015  19.4067  19.4128  19.4364  19.4687
 19.4691  19.4761  19.4905  19.5032  19.5131  19.5307  19.5590  19.5819
 19.5950  19.6196  19.6239  19.6385  19.6531  19.6820  19.6938  19.7074
 19.7305  19.7624  19.7792  19.7942  19.8275  19.8363  19.8865  19.9759
 20.0729  20.2851  20.5868  20.6684  20.6686  20.6796  20.7310  20.7407
 20.7548  20.8043  20.8527  20.8650  20.9194  20.9587  21.0740  21.2521
 21.8908  21.8914  21.9112  21.9189  21.9327  21.9439  21.9618  21.9686
 22.0033  22.0330  22.0782  22.0957  22.1638  22.2780  22.2882  22.3044
 22.3236  22.3377  22.3926  22.3995  22.4081  22.4174  22.4306  22.6511
 22.6826  22.7320  22.7586  22.7778  22.8234  22.8679  22.8709  22.8854
 22.9192  22.9306  23.0156  23.1229  23.1623  23.2670  23.2955  23.3131
 23.3492  23.3535  23.3741  23.3783  23.5327  23.6574  23.6823  23.8078
 23.9375  24.2359  24.2526  24.2871  24.3561  24.3752  24.4529  24.5272
 24.5708  24.5974  24.6510  24.6582  24.7076  24.9296  24.9903  25.0244
 25.0377  25.0411  25.2051  25.2281  25.3936  25.4062  25.6324  25.8916
 25.9151  26.0430  26.0743  26.2317  26.7819  63.9641  64.1689  64.1848
 64.1944  64.3991  64.4735  65.0003
 --------------------------------------------------------------


                        RESTRICTED (RHF) MOLECULAR ORBITAL COEFFICIENTS
                         1         2         3         4         5         6
 eigenvalues:        -19.219   -19.145   -19.135   -19.134   -19.119   -19.117
   1  O 1   s        0.00005  -0.00008  -0.97885   0.00011   0.00000   0.00002
   2  O 1   s        0.00003   0.00001  -0.03147   0.00001   0.00001   0.00001
   3  O 1   s        0.00000   0.00001  -0.08582   0.00002   0.00002   0.00002
   4  O 1   s        0.00048  -0.00022   0.01652   0.00003  -0.00013  -0.00035
   5  O 1   s       -0.00168   0.00143   0.02540  -0.00001   0.00051   0.00225
   6  O 1   s       -0.00093  -0.00020   0.00773  -0.00158   0.00181  -0.00018
   7  O 1   px       0.00000  -0.00000   0.00071   0.00000  -0.00000  -0.00000
   8  O 1   py      -0.00001   0.00000   0.00053   0.00000  -0.00000   0.00000
   9  O 1   pz       0.00001  -0.00000   0.00044  -0.00000   0.00000   0.00000
  10  O 1   px      -0.00005   0.00002   0.00053  -0.00001   0.00001   0.00004
  11  O 1   py       0.00009  -0.00001   0.00019  -0.00003   0.00001  -0.00001
  12  O 1   pz      -0.00008   0.00002   0.00059   0.00001  -0.00000   0.00002
  13  O 1   px       0.00013  -0.00009  -0.00749   0.00003  -0.00007  -0.00027
  14  O 1   py      -0.00037   0.00002  -0.00290   0.00016  -0.00013  -0.00001
  15  O 1   pz       0.00003  -0.00012  -0.00788  -0.00010   0.00008  -0.00027
  16  O 1   px       0.00050  -0.00056  -0.00276   0.00022  -0.00030  -0.00064
  17  O 1   py       0.00049   0.00038  -0.00167   0.00025  -0.00031  -0.00015
  18  O 1   pz      -0.00008  -0.00085  -0.00224   0.00018  -0.00010  -0.00047
  19  O 1   px       0.00043   0.00043  -0.00007  -0.00013  -0.00019   0.00018
  20  O 1   py       0.00040   0.00022  -0.00033   0.00012  -0.00035   0.00050
  21  O 1   pz      -0.00006   0.00019   0.00018   0.00033  -0.00003   0.00004
  22  O 1   d 1     -0.00000   0.00000  -0.00013  -0.00000  -0.00000   0.00000
  23  O 1   d 2      0.00001  -0.00000   0.00022   0.00000  -0.00000   0.00000
  24  O 1   d 3      0.00000   0.00001  -0.00009  -0.00000  -0.00000   0.00000
  25  O 1   d 4      0.00001   0.00000  -0.00009  -0.00000  -0.00000   0.00000
  26  O 1   d 5     -0.00000   0.00000   0.00008   0.00000   0.00000  -0.00000
  27  O 1   d 1     -0.00001   0.00000   0.00025   0.00000   0.00000  -0.00001
  28  O 1   d 2     -0.00007   0.00002  -0.00036  -0.00000   0.00000   0.00000
  29  O 1   d 3      0.00001  -0.00004   0.00016   0.00001   0.00000  -0.00001
  30  O 1   d 4     -0.00001  -0.00002   0.00020   0.00001  -0.00000  -0.00001
  31  O 1   d 5      0.00000  -0.00002  -0.00013  -0.00001  -0.00000   0.00001
  32  O 1   d 1      0.00015  -0.00005   0.00093  -0.00005   0.00006   0.00008
  33  O 1   d 2      0.00061  -0.00015  -0.00370  -0.00001  -0.00001  -0.00016
  34  O 1   d 3     -0.00001   0.00023   0.00225   0.00001  -0.00006   0.00014
  35  O 1   d 4      0.00002   0.00014   0.00135   0.00000  -0.00000   0.00008
  36  O 1   d 5      0.00011   0.00010  -0.00120   0.00005  -0.00001  -0.00005
  37  O 1   d 1     -0.00002  -0.00072   0.00021  -0.00013   0.00018  -0.00005
  38  O 1   d 2      0.00014  -0.00033   0.00042  -0.00002  -0.00014  -0.00032
  39  O 1   d 3      0.00001   0.00075  -0.00006   0.00001  -0.00001   0.00026
  40  O 1   d 4     -0.00010   0.00033  -0.00008  -0.00004  -0.00010  -0.00001
  41  O 1   d 5      0.00013   0.00002   0.00025  -0.00004  -0.00010   0.00002
  42  O 1   f 1      0.00001   0.00000  -0.00002   0.00000  -0.00000   0.00000
  43  O 1   f 2      0.00002   0.00000  -0.00010  -0.00000  -0.00000  -0.00000
  44  O 1   f 3      0.00002   0.00000  -0.00009   0.00000  -0.00000  -0.00000
  45  O 1   f 4      0.00000   0.00000   0.00010  -0.00000  -0.00000   0.00001
  46  O 1   f 5     -0.00000   0.00000   0.00006   0.00000   0.00000   0.00000
  47  O 1   f 6      0.00000  -0.00000   0.00003  -0.00000   0.00000   0.00000
  48  O 1   f 7      0.00000  -0.00001  -0.00007  -0.00000  -0.00000  -0.00000
  49  O 1   f 1     -0.00003  -0.00000   0.00014  -0.00000   0.00000   0.00000
  50  O 1   f 2     -0.00011   0.00001   0.00088   0.00000   0.00000   0.00002
  51  O 1   f 3     -0.00011  -0.00001   0.00083  -0.00000   0.00000   0.00002
  52  O 1   f 4     -0.00001  -0.00001  -0.00088   0.00001   0.00000  -0.00003
  53  O 1   f 5      0.00003  -0.00003  -0.00061  -0.00001  -0.00001  -0.00002
  54  O 1   f 6     -0.00001  -0.00001  -0.00032   0.00000  -0.00000  -0.00002
  55  O 1   f 7     -0.00002   0.00002   0.00060  -0.00000   0.00001   0.00002
  56  O 1   f 1     -0.00008   0.00001  -0.00001  -0.00001  -0.00004  -0.00002
  57  O 1   f 2     -0.00015   0.00014  -0.00028  -0.00000   0.00001   0.00012
  58  O 1   f 3     -0.00004  -0.00012  -0.00046  -0.00000   0.00006   0.00000
  59  O 1   f 4      0.00001  -0.00013   0.00021   0.00003  -0.00003  -0.00006
  60  O 1   f 5      0.00005  -0.00018   0.00006   0.00002   0.00005  -0.00008
  61  O 1   f 6      0.00009  -0.00024  -0.00007   0.00003   0.00002  -0.00002
  62  O 1   f 7     -0.00002  -0.00015  -0.00024  -0.00004   0.00004   0.00001
  63  O 1   g 1     -0.00000  -0.00001  -0.00006   0.00000  -0.00000  -0.00000
  64  O 1   g 2     -0.00000  -0.00000  -0.00002  -0.00000  -0.00000   0.00000
  65  O 1   g 3      0.00001   0.00000  -0.00009  -0.00000   0.00000  -0.00000
  66  O 1   g 4      0.00001  -0.00000  -0.00002  -0.00000   0.00000  -0.00000
  67  O 1   g 5     -0.00000  -0.00000   0.00003   0.00000  -0.00000   0.00000
  68  O 1   g 6     -0.00001   0.00000   0.00012   0.00000   0.00000   0.00000
  69  O 1   g 7      0.00000  -0.00000   0.00002  -0.00000   0.00000  -0.00000
  70  O 1   g 8      0.00000   0.00000   0.00005  -0.00000   0.00000   0.00000
  71  O 1   g 9      0.00000   0.00000  -0.00004   0.00000   0.00000  -0.00000
  72  O 1   g 1      0.00002   0.00002  -0.00001   0.00001   0.00000  -0.00000
  73  O 1   g 2      0.00002  -0.00002   0.00008  -0.00000  -0.00000  -0.00001
  74  O 1   g 3      0.00003  -0.00000   0.00005   0.00001  -0.00001   0.00001
  75  O 1   g 4      0.00003   0.00001  -0.00004  -0.00000  -0.00000   0.00000
  76  O 1   g 5      0.00004  -0.00001  -0.00009  -0.00001   0.00002  -0.00001
  77  O 1   g 6     -0.00000   0.00002  -0.00001  -0.00001   0.00001   0.00001
  78  O 1   g 7      0.00001   0.00001  -0.00012  -0.00001   0.00001  -0.00000
  79  O 1   g 8     -0.00002   0.00001   0.00004  -0.00000  -0.00000   0.00000
  80  O 1   g 9     -0.00001   0.00000   0.00004  -0.00000  -0.00001  -0.00000
  81  O 1   h 1      0.00000   0.00000   0.00002  -0.00000   0.00000  -0.00000
  82  O 1   h 2      0.00000   0.00000  -0.00005   0.00000   0.00000  -0.00000
  83  O 1   h 3     -0.00001   0.00001   0.00002  -0.00000   0.00000  -0.00000
  84  O 1   h 4     -0.00001   0.00000   0.00003   0.00000  -0.00000   0.00000
  85  O 1   h 5     -0.00001   0.00000   0.00007  -0.00000  -0.00000   0.00000
  86  O 1   h 6     -0.00000  -0.00000   0.00003   0.00000  -0.00000  -0.00000
  87  O 1   h 7      0.00001  -0.00000  -0.00002   0.00000  -0.00000   0.00000
  88  O 1   h 8      0.00001  -0.00001   0.00003   0.00000  -0.00000  -0.00000
  89  O 1   h 9     -0.00000   0.00000   0.00003   0.00000  -0.00000   0.00000
  90  O 1   h10      0.00000   0.00000  -0.00001  -0.00000  -0.00000  -0.00000
  91  O 1   h11      0.00000   0.00000  -0.00003   0.00000   0.00000   0.00000
  92  O 2   s       -0.97859   0.00000  -0.00002   0.00000  -0.00005   0.00000
  93  O 2   s       -0.03108   0.00000   0.00001   0.00000  -0.00006   0.00000
  94  O 2   s       -0.08522   0.00000  -0.00002   0.00001  -0.00010   0.00000
  95  O 2   s        0.01670  -0.00002  -0.00001   0.00000   0.00072  -0.00003
  96  O 2   s        0.00656   0.00012   0.00090  -0.00024  -0.00333   0.00027
  97  O 2   s        0.00302  -0.00117  -0.00099   0.00023  -0.00159   0.00050
  98  O 2   px      -0.00061   0.00000  -0.00000   0.00000   0.00001   0.00000
  99  O 2   py      -0.00012   0.00000   0.00001   0.00000  -0.00001   0.00000
 100  O 2   pz       0.00096  -0.00000  -0.00001   0.00000  -0.00000  -0.00000
 101  O 2   px      -0.00024   0.00000   0.00001  -0.00000   0.00002  -0.00001
 102  O 2   py      -0.00012  -0.00001  -0.00007  -0.00001   0.00004  -0.00001
 103  O 2   pz       0.00044   0.00001   0.00005  -0.00000  -0.00003   0.00000
 104  O 2   px       0.00376   0.00001   0.00005   0.00003  -0.00029   0.00004
 105  O 2   py       0.00093   0.00002   0.00013   0.00005  -0.00027   0.00003
 106  O 2   pz      -0.00623  -0.00003  -0.00034   0.00006   0.00020  -0.00004
 107  O 2   px      -0.00017  -0.00029  -0.00062   0.00007  -0.00104   0.00039
 108  O 2   py       0.00057  -0.00006  -0.00146   0.00000   0.00021   0.00002
 109  O 2   pz       0.00059  -0.00012   0.00121   0.00020   0.00140   0.00035
 110  O 2   px       0.00024  -0.00013  -0.00010   0.00005   0.00024   0.00008
 111  O 2   py       0.00001   0.00007   0.00015  -0.00006  -0.00002   0.00011
 112  O 2   pz      -0.00014   0.00008   0.00036   0.00006   0.00019   0.00013
 113  O 2   d 1     -0.00022  -0.00000  -0.00000   0.00000  -0.00000  -0.00000
 114  O 2   d 2     -0.00008  -0.00000   0.00001   0.00000  -0.00001   0.00000
 115  O 2   d 3     -0.00008   0.00000   0.00001   0.00000  -0.00001   0.00000
 116  O 2   d 4     -0.00003   0.00000   0.00001   0.00000   0.00000   0.00000
 117  O 2   d 5     -0.00004   0.00000   0.00001   0.00000  -0.00001   0.00000
 118  O 2   d 1      0.00038   0.00000   0.00000  -0.00000   0.00002  -0.00000
 119  O 2   d 2      0.00011   0.00001  -0.00005   0.00000   0.00005  -0.00001
 120  O 2   d 3      0.00017  -0.00001  -0.00002   0.00000   0.00002  -0.00000
 121  O 2   d 4      0.00005  -0.00000  -0.00003  -0.00000  -0.00001  -0.00000
 122  O 2   d 5      0.00007   0.00000  -0.00001  -0.00000   0.00003  -0.00000
 123  O 2   d 1      0.00199   0.00001   0.00006   0.00001  -0.00026   0.00002
 124  O 2   d 2      0.00121  -0.00003   0.00018  -0.00002  -0.00020   0.00003
 125  O 2   d 3      0.00044   0.00002   0.00006  -0.00003  -0.00004   0.00000
 126  O 2   d 4      0.00030  -0.00001   0.00014  -0.00000  -0.00003   0.00002
 127  O 2   d 5      0.00043  -0.00002  -0.00004   0.00003  -0.00011   0.00002
 128  O 2   d 1     -0.00121  -0.00006  -0.00038  -0.00002  -0.00046   0.00000
 129  O 2   d 2     -0.00005  -0.00006  -0.00018  -0.00006  -0.00044  -0.00008
 130  O 2   d 3     -0.00095   0.00005  -0.00017  -0.00002  -0.00027  -0.00011
 131  O 2   d 4     -0.00028  -0.00007   0.00051   0.00004  -0.00080   0.00007
 132  O 2   d 5      0.00017  -0.00015  -0.00069   0.00006   0.00041   0.00001
 133  O 2   f 1     -0.00007  -0.00000  -0.00000  -0.00000   0.00001  -0.00000
 134  O 2   f 2      0.00004   0.00000  -0.00001  -0.00000  -0.00001  -0.00000
 135  O 2   f 3      0.00011   0.00000  -0.00000  -0.00000  -0.00001   0.00000
 136  O 2   f 4      0.00003  -0.00000  -0.00001  -0.00000  -0.00000   0.00000
 137  O 2   f 5      0.00008   0.00000  -0.00000   0.00000   0.00000  -0.00000
 138  O 2   f 6     -0.00001  -0.00000  -0.00001   0.00000  -0.00001  -0.00000
 139  O 2   f 7      0.00001   0.00000  -0.00000  -0.00000   0.00000  -0.00000
 140  O 2   f 1      0.00057   0.00000   0.00003   0.00000  -0.00006   0.00000
 141  O 2   f 2     -0.00037  -0.00001   0.00003   0.00000   0.00002   0.00001
 142  O 2   f 3     -0.00085  -0.00000   0.00001   0.00001   0.00004  -0.00000
 143  O 2   f 4     -0.00024   0.00000   0.00000   0.00000   0.00000  -0.00000
 144  O 2   f 5     -0.00063  -0.00000  -0.00001  -0.00000  -0.00000  -0.00000
 145  O 2   f 6      0.00006   0.00000   0.00002  -0.00000   0.00003   0.00000
 146  O 2   f 7     -0.00010  -0.00000   0.00001   0.00000  -0.00001   0.00000
 147  O 2   f 1     -0.00042  -0.00004  -0.00013   0.00001  -0.00006   0.00002
 148  O 2   f 2      0.00051  -0.00004  -0.00003  -0.00000  -0.00013   0.00002
 149  O 2   f 3      0.00096   0.00001  -0.00012   0.00000   0.00022  -0.00001
 150  O 2   f 4      0.00022   0.00003   0.00005  -0.00001   0.00018  -0.00003
 151  O 2   f 5      0.00037   0.00001  -0.00005  -0.00001   0.00026   0.00000
 152  O 2   f 6      0.00025  -0.00002   0.00023  -0.00001  -0.00020   0.00001
 153  O 2   f 7      0.00022  -0.00004  -0.00007   0.00001   0.00004   0.00001
 154  O 2   g 1      0.00005   0.00000   0.00001  -0.00000  -0.00001  -0.00000
 155  O 2   g 2     -0.00002   0.00000   0.00002  -0.00000   0.00000   0.00000
 156  O 2   g 3     -0.00002  -0.00000   0.00000   0.00000  -0.00000   0.00000
 157  O 2   g 4      0.00010  -0.00000   0.00002  -0.00000   0.00000   0.00000
 158  O 2   g 5      0.00004  -0.00000  -0.00000  -0.00000  -0.00000   0.00000
 159  O 2   g 6      0.00007  -0.00000  -0.00000  -0.00000   0.00000   0.00000
 160  O 2   g 7     -0.00007  -0.00000  -0.00000   0.00000   0.00001   0.00000
 161  O 2   g 8     -0.00003  -0.00000  -0.00001   0.00000  -0.00001  -0.00000
 162  O 2   g 9     -0.00007   0.00000   0.00001  -0.00000   0.00001  -0.00000
 163  O 2   g 1     -0.00001  -0.00001  -0.00007   0.00000   0.00001   0.00000
 164  O 2   g 2     -0.00002  -0.00001  -0.00008   0.00000  -0.00001   0.00000
 165  O 2   g 3      0.00007   0.00000  -0.00002  -0.00000   0.00003  -0.00001
 166  O 2   g 4     -0.00000   0.00000  -0.00008  -0.00000  -0.00001  -0.00000
 167  O 2   g 5      0.00005  -0.00000   0.00002   0.00000  -0.00002   0.00000
 168  O 2   g 6     -0.00005   0.00001   0.00001   0.00000  -0.00002  -0.00001
 169  O 2   g 7      0.00007   0.00001   0.00001  -0.00000   0.00001  -0.00001
 170  O 2   g 8      0.00007   0.00000   0.00004  -0.00000   0.00004   0.00000
 171  O 2   g 9      0.00001  -0.00001  -0.00003   0.00000  -0.00002   0.00000
 172  O 2   h 1      0.00000  -0.00000  -0.00000   0.00000  -0.00001   0.00000
 173  O 2   h 2     -0.00000  -0.00000  -0.00000  -0.00000   0.00000   0.00000
 174  O 2   h 3     -0.00003  -0.00000  -0.00001  -0.00000  -0.00000  -0.00000
 175  O 2   h 4     -0.00001   0.00000  -0.00000  -0.00000   0.00001  -0.00000
 176  O 2   h 5     -0.00003  -0.00000  -0.00001   0.00000  -0.00000  -0.00000
 177  O 2   h 6     -0.00001  -0.00000  -0.00000  -0.00000  -0.00000  -0.00000
 178  O 2   h 7     -0.00001  -0.00000   0.00000   0.00000  -0.00000   0.00000
 179  O 2   h 8      0.00004  -0.00000  -0.00001  -0.00000  -0.00000   0.00000
 180  O 2   h 9      0.00003   0.00000   0.00001  -0.00000   0.00000  -0.00000
 181  O 2   h10      0.00001   0.00000  -0.00001  -0.00000   0.00000  -0.00000
 182  O 2   h11     -0.00005   0.00000  -0.00001  -0.00000  -0.00000   0.00000
 183  H 1   s        0.00015   0.00000   0.00000   0.00000  -0.00002   0.00000
 184  H 1   s        0.00150  -0.00000   0.00007  -0.00003   0.00005  -0.00001
 185  H 1   s       -0.00529  -0.00006  -0.00031   0.00022   0.00212   0.00016
 186  H 1   s       -0.00216   0.00046   0.00030   0.00009   0.00092   0.00012
 187  H 1   s       -0.00008  -0.00005  -0.00007   0.00004   0.00005   0.00000
 188  H 1   px       0.00004  -0.00000   0.00000   0.00000   0.00000  -0.00000
 189  H 1   py       0.00009   0.00000   0.00001   0.00000  -0.00001   0.00000
 190  H 1   pz       0.00017  -0.00000  -0.00001   0.00000  -0.00000   0.00000
 191  H 1   px      -0.00003   0.00000  -0.00002  -0.00001  -0.00001   0.00000
 192  H 1   py      -0.00009  -0.00001  -0.00005  -0.00000   0.00004  -0.00000
 193  H 1   pz      -0.00002   0.00000   0.00007  -0.00001   0.00001  -0.00001
 194  H 1   px      -0.00102   0.00001   0.00007   0.00005   0.00020  -0.00003
 195  H 1   py      -0.00197  -0.00001   0.00023   0.00003   0.00023   0.00001
 196  H 1   pz      -0.00514  -0.00003  -0.00052   0.00012   0.00078   0.00002
 197  H 1   px      -0.00045   0.00006   0.00001   0.00004  -0.00002  -0.00001
 198  H 1   py      -0.00063   0.00006   0.00026   0.00003   0.00018   0.00004
 199  H 1   pz      -0.00212   0.00014  -0.00024   0.00009   0.00053   0.00001
 200  H 1   d 1      0.00002  -0.00000  -0.00001  -0.00000   0.00000   0.00000
 201  H 1   d 2      0.00010   0.00000   0.00001  -0.00000   0.00000   0.00000
 202  H 1   d 3      0.00014   0.00000   0.00002  -0.00000  -0.00000  -0.00000
 203  H 1   d 4      0.00005  -0.00000   0.00000  -0.00000  -0.00001   0.00000
 204  H 1   d 5     -0.00003   0.00000  -0.00000  -0.00000   0.00000   0.00000
 205  H 1   d 1     -0.00029   0.00000   0.00004   0.00000   0.00000  -0.00000
 206  H 1   d 2     -0.00127  -0.00001  -0.00002   0.00001   0.00004  -0.00001
 207  H 1   d 3     -0.00162  -0.00000  -0.00008   0.00002   0.00007   0.00000
 208  H 1   d 4     -0.00059   0.00001  -0.00001   0.00001   0.00006  -0.00001
 209  H 1   d 5      0.00024  -0.00000   0.00002   0.00000  -0.00001  -0.00000
 210  H 1   d 1     -0.00020   0.00002   0.00004   0.00001  -0.00004  -0.00002
 211  H 1   d 2     -0.00146   0.00002   0.00012   0.00002   0.00004   0.00001
 212  H 1   d 3     -0.00201  -0.00000  -0.00033   0.00005   0.00013  -0.00002
 213  H 1   d 4     -0.00088   0.00002  -0.00009   0.00004   0.00011  -0.00004
 214  H 1   d 5      0.00024   0.00002   0.00004   0.00000  -0.00011   0.00000
 215  H 1   f 1      0.00000  -0.00000   0.00000  -0.00000   0.00001   0.00000
 216  H 1   f 2     -0.00007  -0.00000   0.00001   0.00000   0.00001   0.00000
 217  H 1   f 3     -0.00021  -0.00000   0.00001   0.00000   0.00001   0.00000
 218  H 1   f 4     -0.00015   0.00000   0.00000   0.00000   0.00000   0.00000
 219  H 1   f 5     -0.00008   0.00000   0.00000   0.00000  -0.00001   0.00000
 220  H 1   f 6      0.00005   0.00000   0.00001  -0.00000   0.00001  -0.00000
 221  H 1   f 7      0.00002   0.00000  -0.00000   0.00000  -0.00000  -0.00000
 222  H 1   f 1      0.00004   0.00001   0.00003   0.00000  -0.00004  -0.00000
 223  H 1   f 2     -0.00033   0.00001  -0.00000   0.00001  -0.00001  -0.00001
 224  H 1   f 3     -0.00095  -0.00000  -0.00001   0.00001  -0.00002  -0.00000
 225  H 1   f 4     -0.00073  -0.00000  -0.00006   0.00001   0.00001  -0.00000
 226  H 1   f 5     -0.00050   0.00001  -0.00005   0.00001   0.00007  -0.00001
 227  H 1   f 6      0.00026   0.00001   0.00003   0.00000  -0.00004   0.00000
 228  H 1   f 7      0.00009  -0.00000   0.00001  -0.00000   0.00001   0.00000
 229  H 1   g 1      0.00001   0.00000   0.00000   0.00000   0.00000  -0.00000
 230  H 1   g 2      0.00001   0.00000   0.00001   0.00000  -0.00000  -0.00000
 231  H 1   g 3     -0.00008   0.00000   0.00000   0.00000   0.00000  -0.00000
 232  H 1   g 4     -0.00016  -0.00000   0.00001   0.00000  -0.00000   0.00000
 233  H 1   g 5     -0.00006   0.00000  -0.00000   0.00000   0.00000   0.00000
 234  H 1   g 6     -0.00007   0.00000  -0.00001   0.00000   0.00000  -0.00000
 235  H 1   g 7      0.00006   0.00000   0.00000   0.00000  -0.00000  -0.00000
 236  H 1   g 8      0.00003  -0.00000   0.00000  -0.00000   0.00000   0.00000
 237  H 1   g 9      0.00000  -0.00000   0.00000  -0.00000   0.00000   0.00000
 238  H 2   s        0.00014  -0.00000   0.00000   0.00000  -0.00000   0.00000
 239  H 2   s        0.00156   0.00000  -0.00002   0.00000  -0.00018   0.00002
 240  H 2   s       -0.00588   0.00018   0.00099  -0.00007   0.00170  -0.00018
 241  H 2   s       -0.00274   0.00047   0.00036  -0.00008   0.00058  -0.00066
 242  H 2   s       -0.00003   0.00002  -0.00011  -0.00001  -0.00000  -0.00002
 243  H 2   px      -0.00016  -0.00000  -0.00001  -0.00000  -0.00001   0.00000
 244  H 2   py      -0.00010  -0.00000   0.00000  -0.00000   0.00000   0.00000
 245  H 2   pz       0.00002   0.00000  -0.00001  -0.00000   0.00001  -0.00000
 246  H 2   px       0.00002   0.00001   0.00002   0.00001   0.00006  -0.00001
 247  H 2   py      -0.00004   0.00000  -0.00001  -0.00000   0.00001  -0.00001
 248  H 2   pz       0.00007  -0.00001   0.00007   0.00000  -0.00006   0.00001
 249  H 2   px       0.00446   0.00002  -0.00005  -0.00000  -0.00082   0.00006
 250  H 2   py       0.00334  -0.00007  -0.00025   0.00005  -0.00043   0.00008
 251  H 2   pz      -0.00105   0.00011  -0.00030  -0.00003   0.00060  -0.00008
 252  H 2   px       0.00191  -0.00007  -0.00007  -0.00000  -0.00047   0.00021
 253  H 2   py       0.00154  -0.00017  -0.00018   0.00006  -0.00017   0.00019
 254  H 2   pz      -0.00058   0.00016  -0.00024  -0.00002   0.00024  -0.00024
 255  H 2   d 1      0.00016   0.00000  -0.00000   0.00000  -0.00001  -0.00000
 256  H 2   d 2     -0.00004  -0.00000  -0.00002  -0.00000   0.00001   0.00000
 257  H 2   d 3     -0.00008  -0.00000  -0.00000   0.00000   0.00001  -0.00000
 258  H 2   d 4     -0.00004   0.00000  -0.00001  -0.00000   0.00002  -0.00000
 259  H 2   d 5      0.00006   0.00000   0.00000  -0.00000  -0.00000  -0.00000
 260  H 2   d 1     -0.00170  -0.00000   0.00003  -0.00001   0.00012  -0.00000
 261  H 2   d 2      0.00035  -0.00001   0.00004   0.00001  -0.00007   0.00000
 262  H 2   d 3      0.00094   0.00001   0.00001   0.00000  -0.00010   0.00001
 263  H 2   d 4      0.00045  -0.00001   0.00005   0.00001  -0.00013   0.00001
 264  H 2   d 5     -0.00066  -0.00002  -0.00005   0.00000   0.00002   0.00001
 265  H 2   d 1     -0.00207   0.00002   0.00001  -0.00002   0.00019  -0.00006
 266  H 2   d 2      0.00052  -0.00008   0.00022   0.00001  -0.00020   0.00010
 267  H 2   d 3      0.00130   0.00002   0.00007  -0.00000  -0.00005  -0.00000
 268  H 2   d 4      0.00063  -0.00009   0.00013   0.00001  -0.00018   0.00009
 269  H 2   d 5     -0.00061  -0.00006  -0.00008   0.00004   0.00017   0.00001
 270  H 2   f 1      0.00021   0.00000   0.00000   0.00000  -0.00001   0.00000
 271  H 2   f 2     -0.00007  -0.00000   0.00000  -0.00000   0.00000   0.00000
 272  H 2   f 3     -0.00008  -0.00000  -0.00000  -0.00000   0.00001  -0.00000
 273  H 2   f 4      0.00006  -0.00000  -0.00000   0.00000  -0.00001   0.00000
 274  H 2   f 5     -0.00012   0.00000   0.00001  -0.00000   0.00000   0.00000
 275  H 2   f 6     -0.00003   0.00000  -0.00002  -0.00000   0.00001  -0.00000
 276  H 2   f 7     -0.00004   0.00000   0.00001  -0.00000   0.00001  -0.00000
 277  H 2   f 1      0.00101   0.00001  -0.00000  -0.00000  -0.00003   0.00000
 278  H 2   f 2     -0.00040   0.00003  -0.00006  -0.00000   0.00006  -0.00003
 279  H 2   f 3     -0.00042  -0.00001   0.00000  -0.00000   0.00000   0.00000
 280  H 2   f 4      0.00029  -0.00002   0.00007   0.00000  -0.00003   0.00002
 281  H 2   f 5     -0.00056  -0.00002  -0.00005   0.00000   0.00003   0.00000
 282  H 2   f 6     -0.00011   0.00000   0.00004   0.00000  -0.00001   0.00000
 283  H 2   f 7     -0.00027   0.00002   0.00002  -0.00001   0.00002  -0.00001
 284  H 2   g 1     -0.00011  -0.00000  -0.00000   0.00000  -0.00001   0.00000
 285  H 2   g 2      0.00007  -0.00000  -0.00000   0.00000  -0.00000   0.00000
 286  H 2   g 3      0.00009   0.00000   0.00000   0.00000  -0.00000  -0.00000
 287  H 2   g 4     -0.00004   0.00000  -0.00001  -0.00000   0.00000  -0.00000
 288  H 2   g 5     -0.00006  -0.00000   0.00000   0.00000   0.00000   0.00000
 289  H 2   g 6     -0.00006   0.00000  -0.00001  -0.00000   0.00000  -0.00000
 290  H 2   g 7      0.00003   0.00000   0.00000  -0.00000   0.00000  -0.00000
 291  H 2   g 8     -0.00002   0.00000   0.00000  -0.00000  -0.00000  -0.00000
 292  H 2   g 9      0.00011  -0.00000  -0.00000   0.00000  -0.00000   0.00000
 293  H 3   s       -0.00001  -0.00000   0.00021   0.00000   0.00000   0.00000
 294  H 3   s        0.00001   0.00002   0.00163  -0.00003   0.00004   0.00004
 295  H 3   s        0.00088   0.00040  -0.01206   0.00052  -0.00069  -0.00090
 296  H 3   s        0.00086   0.00059  -0.00395   0.00025  -0.00107   0.00064
 297  H 3   s       -0.00002   0.00004  -0.00033  -0.00008   0.00010  -0.00009
 298  H 3   px       0.00000  -0.00001   0.00010  -0.00000  -0.00000   0.00000
 299  H 3   py      -0.00000   0.00000   0.00018  -0.00000  -0.00000   0.00000
 300  H 3   pz      -0.00001  -0.00001  -0.00005   0.00000  -0.00000  -0.00000
 301  H 3   px      -0.00001   0.00005  -0.00007   0.00000   0.00000  -0.00000
 302  H 3   py       0.00001   0.00001  -0.00014   0.00001   0.00001   0.00001
 303  H 3   pz       0.00001   0.00005   0.00002  -0.00000   0.00000   0.00002
 304  H 3   px       0.00034  -0.00021  -0.00440   0.00010  -0.00007  -0.00019
 305  H 3   py       0.00032  -0.00008  -0.00726   0.00013  -0.00025  -0.00045
 306  H 3   pz       0.00007  -0.00046   0.00237  -0.00010   0.00016  -0.00003
 307  H 3   px       0.00018  -0.00018  -0.00171   0.00001  -0.00019   0.00004
 308  H 3   py       0.00025   0.00020  -0.00318   0.00010  -0.00036  -0.00002
 309  H 3   pz      -0.00005  -0.00041   0.00081  -0.00006   0.00012  -0.00019
 310  H 3   d 1     -0.00001   0.00001   0.00012   0.00000  -0.00000   0.00001
 311  H 3   d 2     -0.00001   0.00000  -0.00006   0.00000  -0.00001   0.00000
 312  H 3   d 3      0.00000  -0.00001  -0.00007   0.00000   0.00000  -0.00000
 313  H 3   d 4     -0.00001   0.00001  -0.00002   0.00000  -0.00000  -0.00000
 314  H 3   d 5     -0.00000  -0.00000  -0.00005  -0.00000  -0.00000  -0.00001
 315  H 3   d 1      0.00009  -0.00002  -0.00191   0.00002  -0.00000  -0.00006
 316  H 3   d 2      0.00005  -0.00004   0.00098  -0.00003   0.00005   0.00001
 317  H 3   d 3     -0.00007   0.00007   0.00102  -0.00001  -0.00000   0.00005
 318  H 3   d 4      0.00003  -0.00005   0.00052  -0.00002   0.00001   0.00002
 319  H 3   d 5     -0.00001   0.00003   0.00093  -0.00000   0.00003   0.00006
 320  H 3   d 1      0.00012  -0.00017  -0.00243   0.00003  -0.00005  -0.00005
 321  H 3   d 2      0.00006  -0.00021   0.00122  -0.00003   0.00006  -0.00005
 322  H 3   d 3     -0.00011   0.00018   0.00138   0.00002   0.00003   0.00009
 323  H 3   d 4     -0.00002  -0.00012   0.00076  -0.00000   0.00004  -0.00004
 324  H 3   d 5      0.00001  -0.00008   0.00135  -0.00001   0.00006   0.00008
 325  H 3   f 1      0.00000   0.00001  -0.00001  -0.00000   0.00000   0.00000
 326  H 3   f 2     -0.00000  -0.00000   0.00014  -0.00000   0.00000   0.00000
 327  H 3   f 3     -0.00001   0.00001   0.00009   0.00000  -0.00000   0.00000
 328  H 3   f 4     -0.00000   0.00000  -0.00012   0.00000  -0.00000  -0.00000
 329  H 3   f 5     -0.00000  -0.00000   0.00007  -0.00000  -0.00000   0.00000
 330  H 3   f 6     -0.00000  -0.00000  -0.00007  -0.00000  -0.00000  -0.00000
 331  H 3   f 7     -0.00001   0.00000   0.00023  -0.00000   0.00000   0.00001
 332  H 3   f 1      0.00002  -0.00003  -0.00011   0.00001   0.00001   0.00001
 333  H 3   f 2      0.00002  -0.00005   0.00056  -0.00001   0.00002  -0.00001
 334  H 3   f 3     -0.00005   0.00005   0.00050   0.00000  -0.00000   0.00003
 335  H 3   f 4     -0.00001   0.00001  -0.00047   0.00000  -0.00001   0.00000
 336  H 3   f 5     -0.00003   0.00006   0.00028   0.00001  -0.00000   0.00000
 337  H 3   f 6     -0.00003   0.00001  -0.00036   0.00001  -0.00002   0.00001
 338  H 3   f 7     -0.00003   0.00001   0.00106  -0.00000   0.00001   0.00002
 339  H 3   g 1     -0.00000  -0.00000   0.00010  -0.00000   0.00000   0.00000
 340  H 3   g 2     -0.00000  -0.00000   0.00000  -0.00000  -0.00000   0.00000
 341  H 3   g 3     -0.00000   0.00001   0.00005   0.00000  -0.00000   0.00000
 342  H 3   g 4     -0.00000  -0.00000  -0.00009   0.00000  -0.00000   0.00000
 343  H 3   g 5      0.00000  -0.00000  -0.00003  -0.00000   0.00000  -0.00000
 344  H 3   g 6      0.00000  -0.00000  -0.00004   0.00000  -0.00000   0.00000
 345  H 3   g 7      0.00001   0.00000  -0.00002  -0.00000   0.00000  -0.00000
 346  H 3   g 8     -0.00000   0.00000  -0.00010   0.00000  -0.00000   0.00000
 347  H 3   g 9     -0.00000   0.00000   0.00008  -0.00000  -0.00000  -0.00000
 348  H 4   s        0.00003   0.00001   0.00025  -0.00000   0.00000   0.00000
 349  H 4   s       -0.00021  -0.00004   0.00244   0.00005  -0.00001   0.00010
 350  H 4   s        0.00113  -0.00198  -0.01822  -0.00004  -0.00019  -0.00157
 351  H 4   s        0.00049  -0.00011  -0.00648   0.00088  -0.00037  -0.00063
 352  H 4   s        0.00022   0.00028   0.00123  -0.00027  -0.00038   0.00035
 353  H 4   px      -0.00003   0.00001   0.00011  -0.00000   0.00000  -0.00000
 354  H 4   py       0.00007  -0.00000  -0.00006  -0.00000  -0.00000   0.00000
 355  H 4   pz      -0.00009   0.00000   0.00023  -0.00000  -0.00000   0.00001
 356  H 4   px       0.00017  -0.00004  -0.00014   0.00001  -0.00002   0.00001
 357  H 4   py      -0.00037   0.00000   0.00004  -0.00000   0.00003  -0.00001
 358  H 4   pz       0.00044  -0.00003  -0.00024   0.00002  -0.00002  -0.00001
 359  H 4   px      -0.00021  -0.00000  -0.00472  -0.00004   0.00002  -0.00027
 360  H 4   py       0.00086   0.00038   0.00384  -0.00004  -0.00012   0.00023
 361  H 4   pz      -0.00016  -0.00061  -0.01194  -0.00009   0.00008  -0.00068
 362  H 4   px      -0.00027  -0.00001  -0.00169   0.00014  -0.00021  -0.00006
 363  H 4   py       0.00006   0.00026   0.00165  -0.00035   0.00019  -0.00009
 364  H 4   pz       0.00000  -0.00040  -0.00428   0.00031  -0.00034  -0.00017
 365  H 4   d 1     -0.00000  -0.00000  -0.00002  -0.00000  -0.00001  -0.00000
 366  H 4   d 2     -0.00001  -0.00001  -0.00006   0.00000  -0.00000   0.00000
 367  H 4   d 3     -0.00001  -0.00000   0.00015   0.00000  -0.00000   0.00001
 368  H 4   d 4      0.00001  -0.00001   0.00013   0.00000  -0.00000   0.00001
 369  H 4   d 5     -0.00001  -0.00000   0.00002  -0.00000  -0.00001  -0.00000
 370  H 4   d 1      0.00005   0.00002   0.00051   0.00000   0.00002   0.00003
 371  H 4   d 2      0.00013   0.00008   0.00134  -0.00001   0.00002   0.00002
 372  H 4   d 3      0.00018  -0.00006  -0.00251  -0.00002   0.00000  -0.00010
 373  H 4   d 4      0.00003   0.00000  -0.00212  -0.00001   0.00001  -0.00007
 374  H 4   d 5      0.00009   0.00003  -0.00028  -0.00000   0.00002   0.00000
 375  H 4   d 1     -0.00013   0.00016   0.00109  -0.00003  -0.00001   0.00006
 376  H 4   d 2     -0.00044   0.00016   0.00302  -0.00001  -0.00008   0.00020
 377  H 4   d 3      0.00023  -0.00015  -0.00379  -0.00006   0.00006  -0.00017
 378  H 4   d 4      0.00023   0.00011  -0.00296  -0.00005  -0.00004  -0.00010
 379  H 4   d 5     -0.00020   0.00007   0.00006  -0.00002  -0.00008   0.00001
 380  H 4   f 1      0.00000  -0.00001   0.00002  -0.00000  -0.00000  -0.00000
 381  H 4   f 2     -0.00003  -0.00000   0.00011  -0.00000   0.00000   0.00000
 382  H 4   f 3     -0.00004   0.00001   0.00016   0.00000  -0.00000   0.00000
 383  H 4   f 4      0.00001  -0.00000  -0.00016  -0.00000   0.00000  -0.00000
 384  H 4   f 5      0.00004  -0.00000  -0.00025   0.00000   0.00000  -0.00001
 385  H 4   f 6     -0.00003   0.00000  -0.00004   0.00000  -0.00000   0.00000
 386  H 4   f 7     -0.00001   0.00000   0.00000   0.00000   0.00000  -0.00000
 387  H 4   f 1     -0.00003   0.00004   0.00013  -0.00000   0.00001   0.00001
 388  H 4   f 2      0.00027   0.00005   0.00066  -0.00001  -0.00002   0.00002
 389  H 4   f 3      0.00032   0.00003   0.00105  -0.00000   0.00001   0.00002
 390  H 4   f 4      0.00019  -0.00004  -0.00089  -0.00002  -0.00001  -0.00002
 391  H 4   f 5     -0.00011   0.00004  -0.00143  -0.00002   0.00001  -0.00002
 392  H 4   f 6      0.00030   0.00003  -0.00028  -0.00002   0.00002  -0.00001
 393  H 4   f 7      0.00015   0.00002   0.00003  -0.00001  -0.00001   0.00001
 394  H 4   g 1      0.00000   0.00000   0.00000   0.00000  -0.00000   0.00000
 395  H 4   g 2      0.00001   0.00000   0.00003  -0.00000   0.00000   0.00000
 396  H 4   g 3     -0.00000   0.00000   0.00010  -0.00000  -0.00000   0.00000
 397  H 4   g 4     -0.00000   0.00000   0.00010   0.00000  -0.00000   0.00000
 398  H 4   g 5      0.00000  -0.00000  -0.00003  -0.00000  -0.00000   0.00000
 399  H 4   g 6      0.00001   0.00000  -0.00015  -0.00000   0.00000  -0.00000
 400  H 4   g 7     -0.00001   0.00001  -0.00005  -0.00000   0.00000  -0.00000
 401  H 4   g 8     -0.00000   0.00000   0.00000  -0.00000   0.00000   0.00000
 402  H 4   g 9      0.00000   0.00000   0.00000  -0.00000  -0.00000  -0.00000
 403  O 3   s        0.00000   0.00000  -0.00000  -0.00003  -0.00000  -0.00000
 404  O 3   s        0.00000   0.00000  -0.00002   0.00000  -0.00000  -0.00000
 405  O 3   s        0.00000   0.00001  -0.00003   0.00000  -0.00000  -0.00000
 406  O 3   s       -0.00001   0.00001   0.00008  -0.00001   0.00001  -0.00001
 407  O 3   s       -0.00003  -0.00021  -0.00028   0.00024  -0.00000   0.00004
 408  O 3   s        0.00000  -0.00016  -0.00099   0.00048  -0.00007   0.00002
 409  O 3   px       0.00000  -0.00000  -0.00000   0.00000  -0.00000   0.00000
 410  O 3   py       0.00000  -0.00000  -0.00000  -0.00000  -0.00000   0.00000
 411  O 3   pz       0.00000  -0.00000  -0.00000  -0.00000  -0.00000   0.00000
 412  O 3   px      -0.00000   0.00001   0.00001  -0.00003   0.00000  -0.00000
 413  O 3   py      -0.00000   0.00001   0.00001   0.00001   0.00000  -0.00000
 414  O 3   pz      -0.00000   0.00000   0.00001   0.00003   0.00000  -0.00000
 415  O 3   px       0.00002  -0.00011  -0.00009   0.00008  -0.00004   0.00002
 416  O 3   py      -0.00000  -0.00006  -0.00002  -0.00004  -0.00001   0.00001
 417  O 3   pz       0.00002  -0.00003  -0.00004  -0.00013  -0.00002   0.00001
 418  O 3   px       0.00005  -0.00027  -0.00034   0.00053  -0.00006   0.00003
 419  O 3   py      -0.00001  -0.00010  -0.00022  -0.00004  -0.00004  -0.00004
 420  O 3   pz       0.00004  -0.00009   0.00000   0.00022  -0.00001   0.00003
 421  O 3   px       0.00001  -0.00006  -0.00012   0.00000  -0.00001  -0.00003
 422  O 3   py       0.00000  -0.00003  -0.00016   0.00009  -0.00002   0.00000
 423  O 3   pz       0.00001  -0.00003   0.00001   0.00000  -0.00001  -0.00000
 424  O 3   d 1      0.00000   0.00000  -0.00000   0.00000  -0.00000  -0.00000
 425  O 3   d 2     -0.00000  -0.00000  -0.00000  -0.00000   0.00000  -0.00000
 426  O 3   d 3     -0.00000  -0.00000   0.00000  -0.00000  -0.00000   0.00000
 427  O 3   d 4      0.00000  -0.00000   0.00000  -0.00000  -0.00000  -0.00000
 428  O 3   d 5      0.00000   0.00000   0.00000   0.00000   0.00000   0.00000
 429  O 3   d 1     -0.00000   0.00000   0.00001  -0.00000   0.00000   0.00000
 430  O 3   d 2     -0.00000   0.00000   0.00001   0.00001  -0.00000   0.00000
 431  O 3   d 3      0.00000   0.00000  -0.00000   0.00001   0.00000  -0.00000
 432  O 3   d 4     -0.00000   0.00000  -0.00000   0.00002  -0.00000   0.00000
 433  O 3   d 5     -0.00000  -0.00000  -0.00001  -0.00002  -0.00000  -0.00000
 434  O 3   d 1      0.00001  -0.00007  -0.00009   0.00001  -0.00002   0.00001
 435  O 3   d 2      0.00001  -0.00002  -0.00004  -0.00009  -0.00000   0.00001
 436  O 3   d 3     -0.00001   0.00002   0.00002  -0.00003   0.00001  -0.00001
 437  O 3   d 4     -0.00000   0.00001   0.00005  -0.00010   0.00001   0.00000
 438  O 3   d 5      0.00000   0.00000   0.00002   0.00011   0.00001   0.00001
 439  O 3   d 1      0.00001  -0.00010  -0.00013   0.00004  -0.00001  -0.00001
 440  O 3   d 2      0.00001  -0.00003  -0.00006   0.00006   0.00000   0.00001
 441  O 3   d 3     -0.00001   0.00001   0.00003  -0.00000   0.00000  -0.00000
 442  O 3   d 4      0.00000   0.00001   0.00003   0.00001  -0.00000   0.00002
 443  O 3   d 5      0.00002   0.00001  -0.00002   0.00006   0.00001   0.00004
 444  O 3   f 1      0.00000   0.00000  -0.00000  -0.00001   0.00000  -0.00000
 445  O 3   f 2     -0.00000  -0.00000   0.00000   0.00001   0.00000  -0.00000
 446  O 3   f 3      0.00000  -0.00000  -0.00000   0.00000  -0.00000   0.00000
 447  O 3   f 4      0.00000  -0.00000  -0.00000  -0.00001  -0.00000   0.00000
 448  O 3   f 5     -0.00000  -0.00000  -0.00000   0.00000  -0.00000   0.00000
 449  O 3   f 6     -0.00000   0.00000  -0.00000   0.00000   0.00000  -0.00000
 450  O 3   f 7      0.00000  -0.00000  -0.00000  -0.00001  -0.00000   0.00000
 451  O 3   f 1     -0.00000  -0.00000   0.00000   0.00002  -0.00000   0.00000
 452  O 3   f 2     -0.00000   0.00000   0.00000  -0.00004   0.00000   0.00000
 453  O 3   f 3     -0.00000   0.00000   0.00002  -0.00000   0.00000  -0.00000
 454  O 3   f 4     -0.00000   0.00000   0.00000   0.00003   0.00000  -0.00000
 455  O 3   f 5      0.00000   0.00000   0.00001  -0.00002   0.00000  -0.00000
 456  O 3   f 6      0.00000  -0.00000  -0.00000  -0.00000  -0.00000   0.00000
 457  O 3   f 7     -0.00000   0.00000   0.00001   0.00003   0.00000  -0.00000
 458  O 3   f 1      0.00001  -0.00001  -0.00000  -0.00001   0.00000   0.00001
 459  O 3   f 2      0.00000   0.00001   0.00005  -0.00003  -0.00000   0.00001
 460  O 3   f 3     -0.00000   0.00000  -0.00000   0.00001  -0.00000   0.00000
 461  O 3   f 4     -0.00000   0.00001   0.00002  -0.00003   0.00000  -0.00000
 462  O 3   f 5     -0.00000   0.00001   0.00003   0.00001   0.00000   0.00000
 463  O 3   f 6     -0.00000  -0.00000   0.00005   0.00007  -0.00000   0.00000
 464  O 3   f 7      0.00000   0.00002   0.00003   0.00007   0.00000   0.00001
 465  O 3   g 1     -0.00000  -0.00000   0.00000   0.00000  -0.00000  -0.00000
 466  O 3   g 2      0.00000  -0.00000  -0.00000  -0.00000  -0.00000   0.00000
 467  O 3   g 3      0.00000   0.00000  -0.00000  -0.00000  -0.00000  -0.00000
 468  O 3   g 4      0.00000  -0.00000  -0.00000   0.00000  -0.00000   0.00000
 469  O 3   g 5      0.00000  -0.00000  -0.00000   0.00000  -0.00000   0.00000
 470  O 3   g 6     -0.00000   0.00000   0.00000   0.00000   0.00000   0.00000
 471  O 3   g 7     -0.00000   0.00000  -0.00000   0.00000   0.00000   0.00000
 472  O 3   g 8      0.00000   0.00000   0.00000  -0.00000  -0.00000   0.00000
 473  O 3   g 9      0.00000   0.00000   0.00000  -0.00000   0.00000  -0.00000
 474  O 3   g 1      0.00000  -0.00000  -0.00001   0.00002   0.00000   0.00000
 475  O 3   g 2     -0.00000  -0.00000   0.00001   0.00000  -0.00000   0.00000
 476  O 3   g 3      0.00000   0.00000   0.00001  -0.00000   0.00000   0.00000
 477  O 3   g 4     -0.00000   0.00000   0.00001   0.00001   0.00000  -0.00000
 478  O 3   g 5      0.00000  -0.00000  -0.00001   0.00001  -0.00000   0.00000
 479  O 3   g 6     -0.00000  -0.00000  -0.00001   0.00000  -0.00000  -0.00000
 480  O 3   g 7      0.00000  -0.00000  -0.00000  -0.00001   0.00000  -0.00000
 481  O 3   g 8      0.00000  -0.00000  -0.00001   0.00002   0.00000  -0.00000
 482  O 3   g 9     -0.00000   0.00000  -0.00001   0.00002   0.00000  -0.00000
 483  O 3   h 1      0.00000   0.00000  -0.00000   0.00001   0.00000   0.00000
 484  O 3   h 2      0.00000   0.00000   0.00000   0.00000   0.00000   0.00000
 485  O 3   h 3     -0.00000   0.00000   0.00000  -0.00000   0.00000  -0.00000
 486  O 3   h 4     -0.00000  -0.00000  -0.00000   0.00000   0.00000  -0.00000
 487  O 3   h 5      0.00000  -0.00000  -0.00000   0.00000  -0.00000   0.00000
 488  O 3   h 6      0.00000  -0.00000  -0.00000  -0.00000  -0.00000   0.00000
 489  O 3   h 7      0.00000   0.00000  -0.00000   0.00000  -0.00000   0.00000
 490  O 3   h 8     -0.00000   0.00000   0.00000  -0.00000  -0.00000  -0.00000
 491  O 3   h 9     -0.00000   0.00000   0.00000  -0.00000  -0.00000  -0.00000
 492  O 3   h10     -0.00000   0.00000   0.00000   0.00000  -0.00000  -0.00000
 493  O 3   h11     -0.00000   0.00000   0.00000  -0.00000   0.00000  -0.00000
 494  H 5   s        0.00000  -0.00000  -0.00000  -0.00001   0.00000  -0.00000
 495  H 5   s        0.00000  -0.00004  -0.00002   0.00004  -0.00001   0.00001
 496  H 5   s       -0.00006   0.00035   0.00040  -0.00027   0.00010  -0.00010
 497  H 5   s       -0.00000   0.00030   0.00061  -0.00024   0.00002   0.00013
 498  H 5   s       -0.00000   0.00003   0.00008  -0.00003  -0.00000   0.00003
 499  H 5   px      -0.00000   0.00000   0.00001  -0.00000   0.00000  -0.00000
 500  H 5   py      -0.00000  -0.00000   0.00000  -0.00001   0.00000  -0.00000
 501  H 5   pz       0.00000   0.00000   0.00000  -0.00000  -0.00000   0.00000
 502  H 5   px       0.00000   0.00000  -0.00002  -0.00000  -0.00000   0.00001
 503  H 5   py       0.00000   0.00001  -0.00001   0.00001  -0.00000   0.00001
 504  H 5   pz      -0.00000  -0.00000  -0.00001  -0.00000   0.00000   0.00000
 505  H 5   px       0.00001  -0.00015  -0.00006  -0.00003  -0.00003  -0.00000
 506  H 5   py       0.00001  -0.00011  -0.00005   0.00012  -0.00000   0.00001
 507  H 5   pz       0.00000  -0.00001  -0.00005   0.00006  -0.00001  -0.00001
 508  H 5   px      -0.00000  -0.00019  -0.00046   0.00048  -0.00004   0.00001
 509  H 5   py       0.00003  -0.00008  -0.00039   0.00053  -0.00004   0.00009
 510  H 5   pz      -0.00002  -0.00001  -0.00007  -0.00005   0.00002  -0.00004
 511  H 5   d 1      0.00000  -0.00000  -0.00001  -0.00001  -0.00000   0.00000
 512  H 5   d 2     -0.00000  -0.00000  -0.00000   0.00001   0.00000  -0.00000
 513  H 5   d 3     -0.00000   0.00000  -0.00000   0.00001   0.00000  -0.00000
 514  H 5   d 4     -0.00000  -0.00000  -0.00000   0.00002  -0.00000  -0.00000
 515  H 5   d 5      0.00000  -0.00000   0.00001  -0.00002  -0.00000   0.00000
 516  H 5   d 1     -0.00001   0.00003   0.00003   0.00000   0.00001  -0.00001
 517  H 5   d 2      0.00000   0.00000   0.00001  -0.00006  -0.00000   0.00000
 518  H 5   d 3      0.00000  -0.00001  -0.00001  -0.00003  -0.00001   0.00001
 519  H 5   d 4      0.00000   0.00001   0.00001  -0.00008   0.00000   0.00000
 520  H 5   d 5     -0.00000   0.00001  -0.00003   0.00009   0.00000  -0.00000
 521  H 5   d 1     -0.00000   0.00006   0.00006  -0.00006   0.00001  -0.00001
 522  H 5   d 2     -0.00001   0.00001   0.00003   0.00003   0.00000   0.00000
 523  H 5   d 3      0.00000  -0.00004  -0.00003   0.00003  -0.00000  -0.00001
 524  H 5   d 4      0.00001   0.00000   0.00003  -0.00000  -0.00000   0.00001
 525  H 5   d 5      0.00001   0.00003   0.00013   0.00014   0.00001   0.00004
 526  H 5   f 1      0.00000  -0.00000  -0.00000   0.00001  -0.00000   0.00000
 527  H 5   f 2      0.00000  -0.00000   0.00000  -0.00000  -0.00000   0.00000
 528  H 5   f 3     -0.00000   0.00000   0.00000   0.00000  -0.00000   0.00000
 529  H 5   f 4     -0.00000   0.00000   0.00000   0.00000   0.00000  -0.00000
 530  H 5   f 5      0.00000   0.00000  -0.00000  -0.00000   0.00000  -0.00000
 531  H 5   f 6      0.00000   0.00000  -0.00000  -0.00001  -0.00000   0.00000
 532  H 5   f 7      0.00000   0.00000   0.00001  -0.00000   0.00000  -0.00000
 533  H 5   f 1      0.00000  -0.00002  -0.00000  -0.00004  -0.00000   0.00000
 534  H 5   f 2     -0.00000  -0.00000  -0.00002   0.00006  -0.00000  -0.00000
 535  H 5   f 3     -0.00000   0.00001   0.00000  -0.00002   0.00000  -0.00001
 536  H 5   f 4      0.00000   0.00000   0.00001  -0.00005  -0.00000   0.00000
 537  H 5   f 5     -0.00000   0.00001   0.00002   0.00002   0.00000  -0.00000
 538  H 5   f 6     -0.00000  -0.00000   0.00001   0.00004   0.00000  -0.00000
 539  H 5   f 7     -0.00000   0.00000  -0.00003  -0.00006  -0.00000  -0.00001
 540  H 5   g 1      0.00000   0.00000   0.00000   0.00002   0.00000  -0.00000
 541  H 5   g 2      0.00000   0.00000   0.00000  -0.00001   0.00000   0.00000
 542  H 5   g 3      0.00000  -0.00000  -0.00000  -0.00000  -0.00000   0.00000
 543  H 5   g 4     -0.00000  -0.00000  -0.00000   0.00001  -0.00000  -0.00000
 544  H 5   g 5     -0.00000   0.00000   0.00000   0.00000   0.00000  -0.00000
 545  H 5   g 6     -0.00000  -0.00000   0.00000   0.00001  -0.00000  -0.00000
 546  H 5   g 7      0.00000  -0.00000  -0.00000  -0.00001  -0.00000   0.00000
 547  H 5   g 8      0.00000  -0.00000  -0.00000   0.00000  -0.00000   0.00000
 548  H 5   g 9      0.00000  -0.00000   0.00000   0.00000   0.00000   0.00000
 549  H 6   s        0.00000   0.00000  -0.00000  -0.00000  -0.00000  -0.00000
 550  H 6   s       -0.00001   0.00001   0.00005   0.00004   0.00001  -0.00000
 551  H 6   s        0.00007  -0.00016  -0.00034   0.00023  -0.00006   0.00002
 552  H 6   s        0.00002  -0.00015   0.00037  -0.00004   0.00001  -0.00006
 553  H 6   s       -0.00000  -0.00004  -0.00012   0.00004  -0.00001  -0.00002
 554  H 6   px       0.00000   0.00000  -0.00000  -0.00000   0.00000   0.00000
 555  H 6   py       0.00000   0.00000  -0.00001  -0.00000  -0.00000   0.00000
 556  H 6   pz      -0.00000   0.00000   0.00000   0.00000   0.00000   0.00000
 557  H 6   px      -0.00000  -0.00000   0.00001   0.00002  -0.00000  -0.00000
 558  H 6   py      -0.00000   0.00000   0.00004  -0.00000   0.00000  -0.00000
 559  H 6   pz      -0.00000  -0.00000  -0.00000   0.00001  -0.00000  -0.00000
 560  H 6   px       0.00003  -0.00003  -0.00012  -0.00002  -0.00001   0.00002
 561  H 6   py      -0.00000   0.00001  -0.00011  -0.00006   0.00002   0.00000
 562  H 6   pz       0.00002  -0.00006  -0.00014   0.00006  -0.00003   0.00000
 563  H 6   px       0.00001  -0.00005   0.00012   0.00001   0.00001  -0.00002
 564  H 6   py      -0.00001  -0.00001  -0.00002   0.00003   0.00003  -0.00001
 565  H 6   pz       0.00001  -0.00008   0.00005   0.00002  -0.00002  -0.00002
 566  H 6   d 1     -0.00000  -0.00000   0.00000  -0.00000  -0.00000  -0.00000
 567  H 6   d 2      0.00000  -0.00000   0.00000   0.00000  -0.00000   0.00000
 568  H 6   d 3      0.00000   0.00000  -0.00000  -0.00000  -0.00000   0.00000
 569  H 6   d 4     -0.00000   0.00000   0.00001   0.00000   0.00000  -0.00000
 570  H 6   d 5     -0.00000   0.00000  -0.00000   0.00000  -0.00000  -0.00000
 571  H 6   d 1     -0.00000   0.00000  -0.00002  -0.00001   0.00000   0.00000
 572  H 6   d 2     -0.00000   0.00000   0.00000  -0.00000   0.00001  -0.00000
 573  H 6   d 3     -0.00000  -0.00001  -0.00002   0.00000  -0.00000  -0.00000
 574  H 6   d 4      0.00001  -0.00001  -0.00006  -0.00001  -0.00001   0.00000
 575  H 6   d 5      0.00000  -0.00000  -0.00002  -0.00001   0.00000   0.00000
 576  H 6   d 1     -0.00001  -0.00001  -0.00002   0.00002   0.00001  -0.00001
 577  H 6   d 2     -0.00000   0.00000  -0.00003  -0.00000   0.00001  -0.00000
 578  H 6   d 3     -0.00000  -0.00002  -0.00002   0.00001  -0.00001   0.00000
 579  H 6   d 4      0.00001  -0.00002   0.00002  -0.00002  -0.00001  -0.00000
 580  H 6   d 5      0.00001   0.00000   0.00001  -0.00003   0.00001   0.00000
 581  H 6   f 1     -0.00000   0.00000  -0.00000  -0.00000  -0.00000  -0.00000
 582  H 6   f 2      0.00000   0.00000  -0.00000  -0.00000   0.00000   0.00000
 583  H 6   f 3      0.00000   0.00000   0.00000   0.00000   0.00000  -0.00000
 584  H 6   f 4     -0.00000  -0.00000  -0.00000   0.00000   0.00000  -0.00000
 585  H 6   f 5      0.00000  -0.00000  -0.00001   0.00000  -0.00000  -0.00000
 586  H 6   f 6      0.00000  -0.00000  -0.00001   0.00000  -0.00000   0.00000
 587  H 6   f 7      0.00000  -0.00000  -0.00000  -0.00000   0.00000  -0.00000
 588  H 6   f 1     -0.00000  -0.00000  -0.00000   0.00001   0.00000  -0.00000
 589  H 6   f 2     -0.00000   0.00000   0.00000   0.00001   0.00001  -0.00000
 590  H 6   f 3     -0.00000   0.00000   0.00000   0.00000   0.00000   0.00000
 591  H 6   f 4     -0.00000  -0.00000   0.00000   0.00000  -0.00000   0.00000
 592  H 6   f 5      0.00000  -0.00001  -0.00001  -0.00000  -0.00000   0.00000
 593  H 6   f 6      0.00000  -0.00000   0.00001  -0.00001   0.00000  -0.00000
 594  H 6   f 7      0.00000  -0.00000   0.00000  -0.00001   0.00000   0.00000
 595  H 6   g 1     -0.00000   0.00000  -0.00000   0.00000  -0.00000  -0.00000
 596  H 6   g 2     -0.00000  -0.00000  -0.00000  -0.00000   0.00000  -0.00000
 597  H 6   g 3     -0.00000   0.00000   0.00000   0.00000   0.00000   0.00000
 598  H 6   g 4     -0.00000   0.00000   0.00000   0.00000   0.00000   0.00000
 599  H 6   g 5     -0.00000   0.00000   0.00000   0.00000   0.00000   0.00000
 600  H 6   g 6     -0.00000  -0.00000  -0.00000   0.00000  -0.00000   0.00000
 601  H 6   g 7      0.00000  -0.00000  -0.00000   0.00000   0.00000   0.00000
 602  H 6   g 8      0.00000  -0.00000  -0.00000  -0.00000   0.00000   0.00000
 603  H 6   g 9     -0.00000  -0.00000  -0.00000  -0.00000   0.00000  -0.00000
 604  O 4   s       -0.00000  -0.00008   0.00010   0.97851   0.00000   0.00000
 605  O 4   s       -0.00000  -0.00002  -0.00001   0.03095   0.00000   0.00000
 606  O 4   s       -0.00001  -0.00005  -0.00001   0.08503   0.00000   0.00001
 607  O 4   s        0.00003   0.00006   0.00006  -0.01506   0.00002  -0.00005
 608  O 4   s        0.00002   0.00087  -0.00004  -0.01606  -0.00018   0.00010
 609  O 4   s        0.00007   0.00080   0.00083  -0.00383  -0.00037   0.00006
 610  O 4   px      -0.00000  -0.00000  -0.00000   0.00095  -0.00000   0.00000
 611  O 4   py       0.00000  -0.00000  -0.00000   0.00021  -0.00000   0.00000
 612  O 4   pz      -0.00000  -0.00000  -0.00000   0.00053  -0.00000   0.00000
 613  O 4   px       0.00000  -0.00002   0.00001   0.00057   0.00000  -0.00000
 614  O 4   py      -0.00000  -0.00001   0.00000   0.00024   0.00000  -0.00000
 615  O 4   pz       0.00000   0.00001  -0.00000   0.00024   0.00000  -0.00000
 616  O 4   px       0.00000   0.00022  -0.00002  -0.00745  -0.00002  -0.00001
 617  O 4   py       0.00000   0.00025  -0.00000  -0.00237   0.00001   0.00001
 618  O 4   pz       0.00000  -0.00000   0.00002  -0.00367  -0.00002   0.00000
 619  O 4   px      -0.00003   0.00025  -0.00015  -0.00117  -0.00010   0.00009
 620  O 4   py       0.00010   0.00060   0.00011   0.00007   0.00005  -0.00006
 621  O 4   pz      -0.00005  -0.00026   0.00018  -0.00054  -0.00006   0.00005
 622  O 4   px       0.00003   0.00008   0.00004  -0.00026  -0.00008   0.00003
 623  O 4   py      -0.00005   0.00003   0.00005   0.00030   0.00006   0.00000
 624  O 4   pz       0.00003   0.00004   0.00011  -0.00035  -0.00005  -0.00000
 625  O 4   d 1      0.00000  -0.00000   0.00000  -0.00002  -0.00000  -0.00000
 626  O 4   d 2      0.00000   0.00000  -0.00000  -0.00010   0.00000  -0.00000
 627  O 4   d 3     -0.00000   0.00000   0.00000  -0.00018  -0.00000   0.00000
 628  O 4   d 4     -0.00000  -0.00000   0.00000   0.00013   0.00000   0.00000
 629  O 4   d 5      0.00000   0.00000  -0.00000  -0.00013   0.00000  -0.00000
 630  O 4   d 1     -0.00000   0.00000  -0.00000   0.00003   0.00000   0.00000
 631  O 4   d 2     -0.00000  -0.00001   0.00000   0.00015  -0.00000   0.00000
 632  O 4   d 3     -0.00000  -0.00000  -0.00001   0.00031   0.00000   0.00000
 633  O 4   d 4      0.00000   0.00001  -0.00001  -0.00024  -0.00000  -0.00000
 634  O 4   d 5     -0.00000  -0.00002   0.00000   0.00018  -0.00000   0.00000
 635  O 4   d 1     -0.00000   0.00014  -0.00000   0.00034   0.00001  -0.00001
 636  O 4   d 2      0.00000   0.00001  -0.00001   0.00126   0.00001   0.00000
 637  O 4   d 3     -0.00000  -0.00010   0.00004   0.00205   0.00001  -0.00001
 638  O 4   d 4     -0.00000  -0.00002   0.00003  -0.00130  -0.00001   0.00000
 639  O 4   d 5      0.00000   0.00000  -0.00002   0.00241   0.00001  -0.00001
 640  O 4   d 1      0.00002   0.00017  -0.00007  -0.00030   0.00006  -0.00008
 641  O 4   d 2      0.00000  -0.00009  -0.00002  -0.00002   0.00003  -0.00000
 642  O 4   d 3      0.00001  -0.00005   0.00005  -0.00043   0.00002  -0.00002
 643  O 4   d 4     -0.00002  -0.00008   0.00000   0.00044  -0.00003   0.00004
 644  O 4   d 5     -0.00000  -0.00000  -0.00000  -0.00073   0.00003  -0.00004
 645  O 4   f 1      0.00000  -0.00000   0.00000  -0.00008  -0.00000   0.00000
 646  O 4   f 2     -0.00000   0.00000  -0.00000  -0.00007   0.00000  -0.00000
 647  O 4   f 3     -0.00000   0.00000   0.00000  -0.00006  -0.00000   0.00000
 648  O 4   f 4     -0.00000   0.00000  -0.00000  -0.00006   0.00000   0.00000
 649  O 4   f 5     -0.00000   0.00000  -0.00000  -0.00002  -0.00000   0.00000
 650  O 4   f 6     -0.00000  -0.00000   0.00000  -0.00003   0.00000  -0.00000
 651  O 4   f 7     -0.00000   0.00000  -0.00000  -0.00013  -0.00000   0.00000
 652  O 4   f 1     -0.00000   0.00001  -0.00001   0.00066   0.00000  -0.00000
 653  O 4   f 2     -0.00000  -0.00000   0.00000   0.00056   0.00000   0.00000
 654  O 4   f 3      0.00000  -0.00001  -0.00001   0.00051   0.00000  -0.00000
 655  O 4   f 4     -0.00000  -0.00000  -0.00000   0.00047  -0.00000  -0.00000
 656  O 4   f 5      0.00000  -0.00002   0.00001   0.00021   0.00000  -0.00000
 657  O 4   f 6      0.00000   0.00001  -0.00000   0.00017  -0.00000   0.00000
 658  O 4   f 7      0.00000  -0.00002   0.00001   0.00106   0.00000  -0.00000
 659  O 4   f 1     -0.00000   0.00004   0.00001  -0.00047   0.00002  -0.00003
 660  O 4   f 2      0.00001   0.00000  -0.00002  -0.00027   0.00001  -0.00001
 661  O 4   f 3     -0.00000   0.00000  -0.00003  -0.00027   0.00001  -0.00000
 662  O 4   f 4      0.00001   0.00007  -0.00000  -0.00024   0.00000  -0.00001
 663  O 4   f 5      0.00000  -0.00003   0.00004  -0.00007  -0.00000  -0.00000
 664  O 4   f 6      0.00001   0.00007  -0.00000  -0.00007  -0.00000  -0.00000
 665  O 4   f 7      0.00002  -0.00001   0.00005  -0.00042  -0.00000  -0.00000
 666  O 4   g 1      0.00000  -0.00000  -0.00000   0.00009  -0.00000   0.00000
 667  O 4   g 2     -0.00000  -0.00000  -0.00000   0.00007  -0.00000   0.00000
 668  O 4   g 3     -0.00000   0.00000   0.00000   0.00007   0.00000  -0.00000
 669  O 4   g 4     -0.00000  -0.00000   0.00000  -0.00002   0.00000  -0.00000
 670  O 4   g 5     -0.00000  -0.00000   0.00000  -0.00002   0.00000   0.00000
 671  O 4   g 6     -0.00000  -0.00000  -0.00000   0.00005   0.00000   0.00000
 672  O 4   g 7     -0.00000   0.00000   0.00000  -0.00005   0.00000  -0.00000
 673  O 4   g 8     -0.00000  -0.00000  -0.00000   0.00008   0.00000   0.00000
 674  O 4   g 9     -0.00000   0.00000  -0.00000   0.00005   0.00000  -0.00000
 675  O 4   g 1     -0.00000  -0.00000   0.00001  -0.00010   0.00000  -0.00000
 676  O 4   g 2      0.00000   0.00001   0.00000  -0.00009   0.00000  -0.00000
 677  O 4   g 3      0.00000  -0.00000  -0.00001  -0.00004   0.00000   0.00000
 678  O 4   g 4     -0.00000   0.00002  -0.00001  -0.00008  -0.00000  -0.00000
 679  O 4   g 5      0.00000   0.00001  -0.00001  -0.00001  -0.00000   0.00000
 680  O 4   g 6      0.00000   0.00001   0.00000   0.00001  -0.00000  -0.00000
 681  O 4   g 7      0.00000  -0.00000   0.00000  -0.00002  -0.00000   0.00000
 682  O 4   g 8      0.00000   0.00002  -0.00000   0.00003  -0.00000  -0.00000
 683  O 4   g 9      0.00000  -0.00002   0.00001  -0.00007  -0.00000   0.00000
 684  O 4   h 1     -0.00000  -0.00000   0.00000  -0.00003  -0.00000   0.00000
 685  O 4   h 2     -0.00000   0.00000   0.00000  -0.00002   0.00000  -0.00000
 686  O 4   h 3      0.00000  -0.00000  -0.00000  -0.00001  -0.00000   0.00000
 687  O 4   h 4     -0.00000   0.00000  -0.00000  -0.00003  -0.00000   0.00000
 688  O 4   h 5     -0.00000  -0.00000   0.00000  -0.00005  -0.00000   0.00000
 689  O 4   h 6     -0.00000  -0.00000  -0.00000  -0.00002   0.00000   0.00000
 690  O 4   h 7      0.00000   0.00000  -0.00000   0.00001   0.00000  -0.00000
 691  O 4   h 8     -0.00000  -0.00000   0.00000  -0.00001   0.00000   0.00000
 692  O 4   h 9      0.00000   0.00000  -0.00000  -0.00001   0.00000   0.00000
 693  O 4   h10      0.00000  -0.00000   0.00000   0.00005  -0.00000   0.00000
 694  O 4   h11     -0.00000  -0.00000   0.00000  -0.00004  -0.00000   0.00000
 695  H 7   s       -0.00000  -0.00000  -0.00000  -0.00020   0.00000   0.00000
 696  H 7   s        0.00001   0.00004   0.00002  -0.00167  -0.00001  -0.00001
 697  H 7   s        0.00009   0.00017  -0.00001   0.00991   0.00019  -0.00017
 698  H 7   s       -0.00011  -0.00019  -0.00034   0.00287   0.00033  -0.00003
 699  H 7   s       -0.00002  -0.00002   0.00002   0.00032  -0.00000   0.00001
 700  H 7   px       0.00000   0.00000  -0.00000   0.00013  -0.00000  -0.00000
[...]
1114  H 11  d 1     -0.00007  -0.00002  -0.00017   0.00002
1115  H 11  d 2      0.00002  -0.00040  -0.00031   0.00021
1116  H 11  d 3     -0.00008  -0.00032  -0.00028   0.00016
1117  H 11  d 4      0.00004  -0.00004   0.00010   0.00018
1118  H 11  d 5     -0.00027   0.00018   0.00026   0.00006
1119  H 11  d 1     -0.00031   0.00141   0.00405  -0.00005
1120  H 11  d 2     -0.00097   0.00434   0.00556  -0.00108
1121  H 11  d 3      0.00058   0.00225   0.00160  -0.00119
1122  H 11  d 4     -0.00006   0.00138   0.00226  -0.00118
1123  H 11  d 5      0.00186  -0.00184  -0.00226  -0.00053
1124  H 11  d 1      0.00306   0.00055  -0.00265  -0.00303
1125  H 11  d 2      0.00800   0.00296  -0.00672  -0.00058
1126  H 11  d 3      0.00578   0.00114  -0.01131  -0.00402
1127  H 11  d 4      0.00484   0.00194   0.00219  -0.00926
1128  H 11  d 5     -0.00408  -0.00291   0.00391  -0.00544
1129  H 11  f 1     -0.00009   0.00007   0.00027   0.00002
1130  H 11  f 2     -0.00017   0.00029   0.00076  -0.00007
1131  H 11  f 3     -0.00014   0.00015   0.00039   0.00000
1132  H 11  f 4      0.00005  -0.00007  -0.00023  -0.00005
1133  H 11  f 5     -0.00002   0.00014   0.00037  -0.00003
1134  H 11  f 6      0.00004  -0.00008  -0.00007   0.00008
1135  H 11  f 7      0.00016  -0.00017  -0.00035   0.00001
1136  H 11  f 1      0.00054  -0.00071  -0.00098  -0.00101
1137  H 11  f 2      0.00123   0.00075  -0.00172  -0.00120
1138  H 11  f 3      0.00145   0.00175  -0.00113  -0.00116
1139  H 11  f 4      0.00039   0.00029  -0.00071   0.00029
1140  H 11  f 5      0.00132   0.00077  -0.00206  -0.00177
1141  H 11  f 6      0.00021  -0.00135  -0.00056  -0.00166
1142  H 11  f 7     -0.00025  -0.00064   0.00006  -0.00048
1143  H 11  g 1      0.00003  -0.00008  -0.00008  -0.00007
1144  H 11  g 2      0.00002  -0.00003  -0.00004  -0.00011
1145  H 11  g 3      0.00011   0.00014  -0.00007  -0.00015
1146  H 11  g 4      0.00003   0.00010  -0.00004  -0.00005
1147  H 11  g 5     -0.00004  -0.00005  -0.00003   0.00008
1148  H 11  g 6      0.00008   0.00007  -0.00012  -0.00005
1149  H 11  g 7      0.00004  -0.00010  -0.00008  -0.00008
1150  H 11  g 8      0.00000  -0.00015  -0.00007  -0.00004
1151  H 11  g 9      0.00003  -0.00003  -0.00003   0.00001
1152  H 12  s       -0.00198   0.00135   0.00605  -0.00036
1153  H 12  s       -0.00234   0.00163   0.00009  -0.00509
1154  H 12  s       -0.04742   0.03086   0.25896   0.06399
1155  H 12  s        0.07949  -0.03608   0.14158   0.14066
1156  H 12  s       -0.36778   0.20622   0.49744  -0.02866
1157  H 12  px      -0.00075   0.00041   0.00131  -0.00018
1158  H 12  py       0.00068  -0.00040  -0.00132   0.00007
1159  H 12  pz      -0.00021   0.00023   0.00027  -0.00000
1160  H 12  px       0.00123  -0.00036  -0.00054   0.00104
1161  H 12  py      -0.00159   0.00091   0.00210  -0.00058
1162  H 12  pz      -0.00030  -0.00039   0.00165   0.00024
1163  H 12  px      -0.00508   0.00282  -0.03547  -0.02314
1164  H 12  py       0.01282  -0.00602   0.02522   0.01913
1165  H 12  pz       0.00484  -0.00036  -0.02147  -0.01226
1166  H 12  px      -0.01447   0.00948  -0.05240  -0.04534
1167  H 12  py       0.03442  -0.00165   0.05761   0.04423
1168  H 12  pz       0.00289  -0.00458  -0.00521  -0.03229
1169  H 12  d 1     -0.00008   0.00002   0.00037   0.00007
1170  H 12  d 2     -0.00015  -0.00000   0.00006   0.00010
1171  H 12  d 3      0.00013   0.00009   0.00024   0.00010
1172  H 12  d 4      0.00010  -0.00008  -0.00023  -0.00009
1173  H 12  d 5      0.00017  -0.00012  -0.00017   0.00001
1174  H 12  d 1      0.00036   0.00011  -0.00641  -0.00234
1175  H 12  d 2      0.00084  -0.00000  -0.00213  -0.00153
1176  H 12  d 3     -0.00069  -0.00019  -0.00329  -0.00125
1177  H 12  d 4     -0.00093   0.00054   0.00333   0.00153
1178  H 12  d 5     -0.00117   0.00067   0.00125   0.00035
1179  H 12  d 1     -0.01237   0.00444  -0.00431  -0.00972
1180  H 12  d 2     -0.00123  -0.00184  -0.00596  -0.00838
1181  H 12  d 3     -0.00648   0.00425  -0.00041  -0.00135
1182  H 12  d 4     -0.00288   0.00012   0.00504   0.01010
1183  H 12  d 5     -0.00528  -0.00038   0.00011   0.00227
1184  H 12  f 1     -0.00012   0.00006   0.00067   0.00019
1185  H 12  f 2     -0.00012  -0.00000   0.00055   0.00014
1186  H 12  f 3      0.00011  -0.00008  -0.00036  -0.00011
1187  H 12  f 4     -0.00007   0.00004   0.00052   0.00009
1188  H 12  f 5     -0.00002   0.00000   0.00022   0.00011
1189  H 12  f 6      0.00009  -0.00011  -0.00027   0.00001
1190  H 12  f 7     -0.00012   0.00001   0.00040   0.00010
1191  H 12  f 1      0.00086  -0.00038  -0.00030   0.00098
1192  H 12  f 2     -0.00022   0.00019   0.00047   0.00209
1193  H 12  f 3     -0.00179   0.00103   0.00099   0.00060
1194  H 12  f 4     -0.00019  -0.00016  -0.00015   0.00150
1195  H 12  f 5      0.00125  -0.00052  -0.00026  -0.00052
1196  H 12  f 6      0.00051   0.00038   0.00088  -0.00042
1197  H 12  f 7      0.00255  -0.00080  -0.00012   0.00037
1198  H 12  g 1      0.00007  -0.00002  -0.00001  -0.00005
1199  H 12  g 2      0.00010  -0.00004  -0.00014  -0.00014
1200  H 12  g 3      0.00015  -0.00005  -0.00003  -0.00007
1201  H 12  g 4      0.00001  -0.00003   0.00009   0.00008
1202  H 12  g 5      0.00010  -0.00002   0.00001  -0.00007
1203  H 12  g 6      0.00005   0.00001  -0.00010  -0.00011
1204  H 12  g 7     -0.00001  -0.00001  -0.00001   0.00001
1205  H 12  g 8     -0.00004   0.00000  -0.00011  -0.00008
1206  H 12  g 9     -0.00013   0.00004  -0.00013  -0.00007
1207  O 7   s        0.00073  -0.00015   0.00178   0.00166
1208  O 7   s       -0.01881  -0.00699  -0.05626  -0.03535
1209  O 7   s        0.00010  -0.00161  -0.00177   0.00042
1210  O 7   s       -0.02894   0.00063  -0.04971  -0.03735
1211  O 7   s        0.01712   0.02555  -0.07360  -0.07657
1212  O 7   s       -0.01031  -0.17672  -0.66109  -0.28095
1213  O 7   px      -0.00207   0.00140  -0.00234   0.00326
1214  O 7   py      -0.00066   0.00341  -0.01207  -0.01465
1215  O 7   pz       0.01207  -0.00075   0.01672   0.02037
1216  O 7   px      -0.00440   0.00138  -0.00549   0.00580
1217  O 7   py       0.00044   0.00712  -0.01702  -0.02321
1218  O 7   pz       0.02024  -0.00172   0.02322   0.03084
1219  O 7   px       0.00277   0.01444   0.01166   0.00626
1220  O 7   py      -0.00786   0.00160  -0.04451  -0.03862
1221  O 7   pz       0.02591  -0.00658   0.04781   0.05853
1222  O 7   px       0.04629  -0.01909  -0.08817  -0.02668
1223  O 7   py      -0.01112  -0.01288  -0.06837  -0.01809
1224  O 7   pz       0.01905   0.05750   0.17325   0.10516
1225  O 7   px       0.07234  -0.04835   0.09802   0.18441
1226  O 7   py      -0.08745   0.03797  -0.14686  -0.20204
1227  O 7   pz       0.04075  -0.01159   0.13692   0.11749
1228  O 7   d 1      0.00009   0.00012   0.00028   0.00021
1229  O 7   d 2     -0.00001   0.00003   0.00005   0.00002
1230  O 7   d 3     -0.00001  -0.00004   0.00004  -0.00003
1231  O 7   d 4     -0.00003   0.00013   0.00033   0.00015
1232  O 7   d 5     -0.00000  -0.00007  -0.00021  -0.00011
1233  O 7   d 1     -0.00053  -0.00066  -0.00233  -0.00155
1234  O 7   d 2     -0.00013  -0.00057  -0.00159  -0.00054
1235  O 7   d 3     -0.00009   0.00039  -0.00005   0.00003
1236  O 7   d 4      0.00061  -0.00045  -0.00049  -0.00024
1237  O 7   d 5     -0.00027   0.00011   0.00051   0.00033
1238  O 7   d 1     -0.00095   0.00077   0.00664   0.00563
1239  O 7   d 2      0.00321   0.00178   0.01402   0.00754
1240  O 7   d 3     -0.00346  -0.00240  -0.00697  -0.00636
1241  O 7   d 4     -0.00486   0.00139   0.00257   0.00212
1242  O 7   d 5      0.00345  -0.00048   0.00128   0.00070
1243  O 7   d 1     -0.00855   0.00914   0.01227  -0.00465
1244  O 7   d 2      0.02178   0.00012   0.04922   0.03861
1245  O 7   d 3     -0.01660  -0.00094  -0.03462  -0.03913
1246  O 7   d 4     -0.02139   0.02175   0.01646  -0.01209
1247  O 7   d 5      0.02161  -0.01543  -0.00357   0.02520
1248  O 7   f 1     -0.00002   0.00000  -0.00021  -0.00019
1249  O 7   f 2     -0.00009   0.00008  -0.00011  -0.00020
1250  O 7   f 3      0.00005  -0.00002   0.00020   0.00018
1251  O 7   f 4     -0.00010   0.00001  -0.00009  -0.00015
1252  O 7   f 5     -0.00008  -0.00004  -0.00025  -0.00016
1253  O 7   f 6      0.00001   0.00004   0.00020   0.00007
1254  O 7   f 7     -0.00011  -0.00000  -0.00026  -0.00022
1255  O 7   f 1     -0.00014  -0.00027   0.00100   0.00101
1256  O 7   f 2      0.00043  -0.00039   0.00026   0.00059
1257  O 7   f 3     -0.00052   0.00027  -0.00198  -0.00186
1258  O 7   f 4      0.00071   0.00001   0.00061   0.00088
1259  O 7   f 5      0.00034   0.00010   0.00120   0.00083
1260  O 7   f 6     -0.00025  -0.00018  -0.00166  -0.00081
1261  O 7   f 7      0.00054  -0.00003   0.00104   0.00093
1262  O 7   f 1     -0.00022   0.00366   0.01324   0.00501
1263  O 7   f 2      0.00308  -0.00855  -0.00518   0.00534
1264  O 7   f 3     -0.00762  -0.00196  -0.02414  -0.02004
1265  O 7   f 4      0.00632  -0.00691   0.00212   0.01279
1266  O 7   f 5      0.00238  -0.00026   0.00537   0.00311
1267  O 7   f 6     -0.00649   0.00445  -0.00586  -0.01115
1268  O 7   f 7      0.00528  -0.00547  -0.00229   0.00889
1269  O 7   g 1     -0.00000  -0.00009  -0.00017  -0.00000
1270  O 7   g 2     -0.00002   0.00012   0.00008  -0.00008
1271  O 7   g 3      0.00009  -0.00004   0.00024   0.00024
1272  O 7   g 4     -0.00005  -0.00006  -0.00012  -0.00009
1273  O 7   g 5      0.00008  -0.00006   0.00015   0.00021
1274  O 7   g 6     -0.00002   0.00011   0.00004  -0.00011
1275  O 7   g 7     -0.00002   0.00002  -0.00000  -0.00002
1276  O 7   g 8      0.00009  -0.00008   0.00005   0.00021
1277  O 7   g 9     -0.00009  -0.00001  -0.00008  -0.00011
1278  O 7   g 1     -0.00016   0.00066   0.00176   0.00031
1279  O 7   g 2      0.00032  -0.00128  -0.00225  -0.00028
1280  O 7   g 3     -0.00078   0.00104  -0.00148  -0.00218
1281  O 7   g 4      0.00123   0.00059   0.00376   0.00339
1282  O 7   g 5     -0.00096   0.00096  -0.00094  -0.00205
1283  O 7   g 6      0.00012  -0.00117  -0.00127   0.00028
1284  O 7   g 7      0.00077  -0.00002   0.00303   0.00238
1285  O 7   g 8     -0.00091   0.00094  -0.00008  -0.00199
1286  O 7   g 9      0.00107  -0.00008   0.00095   0.00130
1287  O 7   h 1     -0.00011   0.00009   0.00004  -0.00016
1288  O 7   h 2      0.00004  -0.00010  -0.00010   0.00004
1289  O 7   h 3     -0.00005   0.00009   0.00012   0.00005
1290  O 7   h 4     -0.00001  -0.00002   0.00006   0.00003
1291  O 7   h 5     -0.00010  -0.00003  -0.00020  -0.00030
1292  O 7   h 6     -0.00002  -0.00002  -0.00008  -0.00008
1293  O 7   h 7     -0.00005   0.00010  -0.00007  -0.00010
1294  O 7   h 8     -0.00011  -0.00010  -0.00055  -0.00036
1295  O 7   h 9     -0.00002  -0.00010  -0.00011   0.00007
1296  O 7   h10     -0.00006  -0.00004   0.00005   0.00002
1297  O 7   h11      0.00014   0.00005   0.00029   0.00016
1298  H 13  s        0.00096   0.00083   0.00505   0.00310
1299  H 13  s        0.00031   0.00364   0.00348  -0.00105
1300  H 13  s        0.06310   0.04790   0.28564   0.19292
1301  H 13  s       -0.00951  -0.02016  -0.00144  -0.04420
1302  H 13  s        0.34429  -0.09110   0.95260   1.08345
1303  H 13  px      -0.00015   0.00006  -0.00030  -0.00031
1304  H 13  py       0.00061   0.00003   0.00180   0.00165
1305  H 13  pz      -0.00090  -0.00018  -0.00262  -0.00223
1306  H 13  px       0.00018  -0.00011  -0.00086  -0.00048
1307  H 13  py      -0.00086  -0.00056  -0.00410  -0.00290
1308  H 13  pz       0.00205   0.00162   0.00707   0.00486
1309  H 13  px       0.00353  -0.00027   0.02415   0.02406
1310  H 13  py      -0.00297  -0.00586  -0.02276  -0.01494
1311  H 13  pz      -0.00705   0.00822   0.01191  -0.00880
1312  H 13  px      -0.00090  -0.01100   0.00229   0.01003
1313  H 13  py      -0.00138   0.01421  -0.01513  -0.02022
1314  H 13  pz       0.00120  -0.00245   0.01579  -0.00531
1315  H 13  d 1      0.00007   0.00005   0.00034   0.00029
1316  H 13  d 2      0.00015  -0.00010   0.00029   0.00044
1317  H 13  d 3      0.00015   0.00008   0.00000   0.00014
1318  H 13  d 4     -0.00014   0.00025  -0.00024  -0.00052
1319  H 13  d 5      0.00015  -0.00007   0.00006   0.00018
1320  H 13  d 1     -0.00095  -0.00023  -0.00431  -0.00423
1321  H 13  d 2     -0.00159  -0.00134  -0.00798  -0.00553
1322  H 13  d 3     -0.00100   0.00100   0.00206  -0.00139
1323  H 13  d 4      0.00125  -0.00107   0.00435   0.00539
1324  H 13  d 5     -0.00118  -0.00027  -0.00265  -0.00234
1325  H 13  d 1      0.00063   0.00517  -0.00237  -0.00791
1326  H 13  d 2      0.00479   0.00473   0.01077   0.00748
1327  H 13  d 3     -0.00492   0.00179  -0.01240  -0.01908
1328  H 13  d 4     -0.00043  -0.00365   0.00487   0.00834
1329  H 13  d 5      0.00029   0.00261   0.00268  -0.00225
1330  H 13  f 1      0.00001  -0.00004  -0.00009  -0.00009
1331  H 13  f 2     -0.00018  -0.00009  -0.00071  -0.00058
1332  H 13  f 3     -0.00014  -0.00019  -0.00084  -0.00047
1333  H 13  f 4     -0.00013   0.00001  -0.00014  -0.00023
1334  H 13  f 5     -0.00003   0.00008   0.00025   0.00007
1335  H 13  f 6     -0.00010  -0.00027  -0.00068  -0.00028
1336  H 13  f 7     -0.00014  -0.00005  -0.00042  -0.00037
1337  H 13  f 1      0.00040   0.00020   0.00058   0.00075
1338  H 13  f 2      0.00008   0.00170  -0.00075  -0.00261
1339  H 13  f 3      0.00109   0.00030   0.00249   0.00315
1340  H 13  f 4     -0.00102   0.00082  -0.00155  -0.00394
1341  H 13  f 5      0.00049  -0.00090   0.00130   0.00220
1342  H 13  f 6     -0.00014   0.00108   0.00150  -0.00008
1343  H 13  f 7      0.00022   0.00099   0.00008  -0.00115
1344  H 13  g 1      0.00002  -0.00004   0.00008   0.00014
1345  H 13  g 2      0.00004   0.00002  -0.00001  -0.00001
1346  H 13  g 3     -0.00002   0.00007  -0.00025  -0.00028
1347  H 13  g 4      0.00007  -0.00002   0.00010   0.00028
1348  H 13  g 5     -0.00009   0.00005  -0.00014  -0.00029
1349  H 13  g 6     -0.00004   0.00004   0.00004  -0.00005
1350  H 13  g 7      0.00001  -0.00001   0.00003   0.00007
1351  H 13  g 8     -0.00004   0.00014  -0.00015  -0.00031
1352  H 13  g 9      0.00003   0.00004   0.00005   0.00001
1353  H 14  s        0.00104  -0.00042   0.00217   0.00171
1354  H 14  s        0.00533   0.00333   0.01006   0.00401
1355  H 14  s       -0.03435   0.04736   0.12432   0.02343
1356  H 14  s       -0.20190   0.02044  -0.10668  -0.06134
1357  H 14  s       -0.10687   0.31837   0.09016  -0.49682
1358  H 14  px       0.00057   0.00028   0.00095   0.00009
1359  H 14  py      -0.00029  -0.00026  -0.00069  -0.00003
1360  H 14  pz      -0.00022  -0.00011  -0.00037   0.00001
1361  H 14  px      -0.00213  -0.00220  -0.00391   0.00055
1362  H 14  py       0.00138   0.00111   0.00199  -0.00011
1363  H 14  pz       0.00081   0.00173   0.00279  -0.00010
1364  H 14  px       0.02662  -0.00162  -0.00236  -0.01127
1365  H 14  py      -0.02447   0.00654   0.00113  -0.00619
1366  H 14  pz      -0.00182  -0.00895   0.00544   0.01713
1367  H 14  px       0.01453   0.00181  -0.00790   0.00409
1368  H 14  py      -0.03792   0.03040   0.03247  -0.02969
1369  H 14  pz       0.01105  -0.02878   0.00156   0.00206
1370  H 14  d 1     -0.00027   0.00019   0.00011  -0.00026
1371  H 14  d 2     -0.00003  -0.00007  -0.00023  -0.00003
1372  H 14  d 3     -0.00004  -0.00014  -0.00029  -0.00004
1373  H 14  d 4      0.00020  -0.00005   0.00071   0.00034
1374  H 14  d 5     -0.00021  -0.00021  -0.00048  -0.00021
1375  H 14  d 1      0.00307  -0.00230  -0.00253   0.00139
1376  H 14  d 2      0.00023   0.00042   0.00285   0.00137
1377  H 14  d 3      0.00135  -0.00046   0.00055   0.00078
1378  H 14  d 4     -0.00157   0.00030  -0.00677  -0.00464
1379  H 14  d 5      0.00119   0.00113   0.00444   0.00300
1380  H 14  d 1      0.01737   0.00431   0.01807   0.00839
1381  H 14  d 2     -0.00385  -0.01118  -0.01315  -0.00089
1382  H 14  d 3      0.01302  -0.00296   0.01164   0.01090
1383  H 14  d 4      0.00057   0.02079   0.02352  -0.00795
1384  H 14  d 5     -0.00191  -0.01660  -0.02663   0.00598
1385  H 14  f 1     -0.00011   0.00010   0.00038   0.00024
1386  H 14  f 2      0.00000  -0.00009  -0.00043  -0.00030
1387  H 14  f 3      0.00003  -0.00001  -0.00002  -0.00001
1388  H 14  f 4     -0.00001  -0.00007  -0.00029  -0.00032
1389  H 14  f 5      0.00005   0.00012   0.00028   0.00013
1390  H 14  f 6     -0.00007   0.00000  -0.00006   0.00011
1391  H 14  f 7     -0.00007  -0.00000   0.00000  -0.00010
1392  H 14  f 1     -0.00221  -0.00098  -0.00360  -0.00141
1393  H 14  f 2      0.00009   0.00272   0.00158  -0.00101
1394  H 14  f 3      0.00217  -0.00108   0.00180   0.00267
1395  H 14  f 4     -0.00020   0.00223   0.00065  -0.00101
1396  H 14  f 5     -0.00301   0.00067  -0.00358  -0.00313
1397  H 14  f 6      0.00182  -0.00186   0.00181   0.00302
1398  H 14  f 7     -0.00247   0.00191  -0.00080  -0.00338
1399  H 14  g 1      0.00004   0.00014   0.00021  -0.00007
1400  H 14  g 2      0.00004  -0.00024  -0.00006   0.00018
1401  H 14  g 3     -0.00025   0.00014  -0.00022  -0.00031
1402  H 14  g 4      0.00006   0.00009   0.00010   0.00002
1403  H 14  g 5     -0.00018   0.00013  -0.00015  -0.00023
1404  H 14  g 6      0.00004  -0.00017  -0.00000   0.00019
1405  H 14  g 7      0.00004  -0.00002   0.00005  -0.00001
1406  H 14  g 8     -0.00012   0.00002  -0.00005  -0.00011
1407  H 14  g 9      0.00028  -0.00009   0.00018   0.00029

          Ground-State Mulliken Net Atomic Charges

     Atom                 Charge (a.u.)
  ----------------------------------------
      1 O                    -0.717031
      2 O                    -0.670890
      3 H                     0.360078
      4 H                     0.355134
      5 H                     0.330941
      6 H                     0.363022
      7 O                    -0.674321
      8 H                     0.381722
      9 H                     0.283760
     10 O                    -0.665916
     11 H                     0.321135
     12 H                     0.335953
     13 O                    -0.655733
     14 H                     0.368997
     15 H                     0.285084
     16 O                    -0.661743
     17 H                     0.344180
     18 H                     0.320024
     19 O                    -0.657334
     20 H                     0.266079
     21 H                     0.386860
  ----------------------------------------
  Sum of atomic charges =     0.000000

 -----------------------------------------------------------------
                    Cartesian Multipole Moments
 -----------------------------------------------------------------
    Charge (ESU x 10^10)
                -0.0000
    Dipole Moment (Debye)
         X       1.9000      Y       1.0408      Z      -6.8985
       Tot       7.2307
    Quadrupole Moments (Debye-Ang)
        XX     -51.5064     XY       0.4937     YY     -62.8505
        XZ       6.6770     YZ     -15.1438     ZZ     -38.4741
    Octopole Moments (Debye-Ang^2)
       XXX      40.9045    XXY     -25.3586    XYY      17.9201
       YYY      34.4796    XXZ     -16.5467    XYZ      -4.0431
       YYZ     -36.9969    XZZ     -10.7203    YZZ       1.6440
       ZZZ     -42.6306
    Hexadecapole Moments (Debye-Ang^3)
      XXXX   -1069.4395   XXXY     168.3838   XXYY    -287.3123
      XYYY      79.4632   YYYY   -1447.9563   XXXZ     -82.4332
      XXYZ     -68.9401   XYYZ      23.6887   YYYZ    -148.8114
      XXZZ    -196.3683   XYZZ      49.9227   YYZZ    -305.0421
      XZZZ     -39.8591   YZZZ    -130.1048   ZZZZ    -400.9071
 -----------------------------------------------------------------
 Total job time:  6701.96s(wall), 211442.20s(cpu) 
 Tue Dec 17 23:25:25 2024

        *************************************************************
        *                                                           *
        *  Thank you very much for using Q-Chem.  Have a nice day.  *
        *                                                           *
        *************************************************************


