                  Welcome to Q-Chem
     A Quantum Leap Into The Future Of Chemistry


 Q-Chem 6.2 (devel), Q-Chem, Inc., Pleasanton, CA (2024)

 E. Epifanovsky,  A. T. B. Gilbert,  Xintian Feng,  Joonho Lee,  Yuezhi Mao,  
 N. Mardirossian,  P. Pokhilko,  A. White,  M. Wormit,  M. P. Coons,  
 A. L. Dempwolff,  Zhengting Gan,  D. Hait,  P. R. Horn,  L. D. Jacobson,  
 I. Kaliman,  J. Kussmann,  A. W. Lange,  Ka Un Lao,  D. S. Levine,  Jie Liu,  
 S. C. McKenzie,  A. F. Morrison,  K. D. Nanda,  F. Plasser,  D. R. Rehn,  
 M. L. Vidal,  Zhi-Qiang You,  Ying Zhu,  Huseyin Aksu,  B. Alam,  
 B. Albrecht,  A. Aldossary,  E. Alguire,  J. H. Andersen,  
 J. E. Arias-Martinez,  V. Athavale,  D. Barton,  K. Begam,  A. Behn,  
 N. Bellonzi,  Y. A. Bernard,  E. J. Berquist,  H. Burton,  A. Carreras,  
 K. Carter-Fenk,  Mathew Chow,  Romit Chakraborty,  Chandrima Chakravarty,  
 Junhan Chen,  A. D. Chien,  K. D. Closser,  V. Cofer-Shabica,  L. Cunha,  
 S. Dasgupta,  Jia Deng,  Joseph Dickinson,  M. de Wergifosse,  
 M. Diedenhofen,  Hainam Do,  Wenjie Dou,  S. Ehlert,  Po-Tung Fang,  
 S. Fatehi,  Qingguo Feng,  Jonathan Fetherolf,  T. Friedhoff,  
 Thomas Froitzheim,  Sarai Folkestad,  B. Ganoe,  J. Gayvert,  Qinghui Ge,  
 G. Gidofalvi,  M. Gimferrer,  M. Goldey,  Montgomery Gray,  J. Gomes,  
 C. Gonzalez-Espinoza,  S. Gulania,  A. Gunina,  J. A. Gyamfi,  
 M. W. D. Hanson-Heine,  P. H. P. Harbach,  A. W. Hauser,  M. F. Herbst,  
 M. Hernandez Vera,  M. Hodecker,  Z. C. Holden,  S. Houck,  Xunkun Huang,  
 Kerwin Hui,  B. C. Huynh,  K. Ikeda,  M. Ivanov,  Nayanthara K. Jayadev,  
 Hyunjun Ji,  Zuxin Jin,  Hanjie Jiang,  Subrata Jana,  B. Kaduk,  
 S. Kaehler,  R. Kang,  K. Khistyaev,  Jaehoon Kim,  Yongbin Kim,  
 P. Klunzinger,  Z. Koczor-Benda,  Joong Hoon Koh,  D. Kosenkov,  
 Saikiran Kotaru,  L. Koulias,  T. Kowalczyk,  C. M. Krauter,  K. Kue,  
 A. Kunitsa,  T. Kus,  A. Landau,  K. V. Lawler,  D. Lefrancois,  S. Lehtola,  
 Rain Li,  Shaozhi Li,  Tao E. Li,  Yi-Pei Li,  Jiashu Liang,  M. Liebenthal,  
 Hung-Hsuan Lin,  You-Sheng Lin,  Fenglai Liu,  Kuan-Yu Liu,  Xiao Liu,  
 M. Loipersberger,  A. Luenser,  C. Malbon,  Aniket Mandal,  Manisha,  
 A. Manjanath,  P. Manohar,  E. Mansoor,  S. F. Manzer,  Shan-Ping Mao,  
 A. V. Marenich,  T. Markovich,  S. Mason,  F. Matz,  S. A. Maurer,  
 Samuel May,  Alexandra McIsaac,  P. F. McLaughlin,  M. F. S. J. Menger,  
 J.-M. Mewes,  S. A. Mewes,  P. Morgante,  Mohammad Mostafanejad,  
 Madhubani Mukherjee,  J. W. Mullinax,  Quyen Nguyen,  Avik Kumar Ojha,  
 K. J. Oosterbaan,  Eno Paenurk,  Xiaoliang Pan,  G. Paran,  V. Parravicini,  
 Alexander C. Paul,  Suranjan K. Paul,  F. Pavosevic,  Zheng Pei,  S. Prager,  
 E. I. Proynov,  E. Ramos,  B. Rana,  A. E. Rask,  A. Rettig,  R. M. Richard,  
 F. Rob,  E. Rossomme,  T. Scheele,  M. Scheurer,  M. Schneider,  
 P. E. Schneider,  Tim K. Schramm,  N. Sergueev,  S. M. Sharada,  
 Hengyuan Shen,  W. Skomorowski,  D. W. Small,  C. J. Stein,  
 Alistair J. Sterling,  Yingli Su,  Yu-Chuan Su,  E. J. Sundstrom,  
 J. Talbot,  Zhen Tao,  J. Thirman,  Hung-Yi Tsai,  T. Tsuchimochi,  
 N. M. Tubman,  C. Utku,  S. P. Veccham,  O. Vydrov,  Rahel Weiss,  
 J. Wenzel,  Jonathan Wong,  J. Witte,  H. Wu,  Yanze Wu,  A. Yamada,  
 Chou-Hsun Yang,  Kun Yao,  S. Yeganeh,  S. R. Yost,  Qi Yu,  A. Zech,  
 F. Zeller,  Chongxiao Zhao,  Igor Ying Zhang,  Xing Zhang,  Yu Zhang,  
 D. Zuev,  A. Aspuru-Guzik,  A. T. Bell,  N. A. Besley,  K. B. Bravaya,  
 B. R. Brooks,  D. Casanova,  Jeng-Da Chai,  Hsing-Ta Chen,  S. Coriani,  
 C. J. Cramer,  A. E. DePrince, III,  R. A. DiStasio Jr.,  A. Dreuw,  
 B. D. Dunietz,  T. R. Furlani,  W. A. Goddard III,  S. Grimme,  
 S. Hammes-Schiffer,  T. Head-Gordon,  W. J. Hehre,  Chao-Ping Hsu,  
 T.-C. Jagau,  Yousung Jung,  A. Klamt,  Jing Kong,  D. S. Lambrecht,  
 Xiangyuan Li,  WanZhen Liang,  N. J. Mayhall,  C. W. McCurdy,  J. B. Neaton,  
 T. Neudecker,  C. Ochsenfeld,  J. A. Parkhill,  R. Peverati,  
 V. A. Rassolov,  Haisheng Ren,  Yihan Shao,  L. V. Slipchenko,  
 R. P. Steele,  J. E. Subotnik,  A. J. W. Thom,  A. Tkatchenko,  
 D. G. Truhlar,  T. Van Voorhis,  Fan Wang,  T. A. Wesolowski,  K. B. Whaley,  
 H. L. Woodcock III,  P. M. Zimmerman,  S. Faraji,  P. M. W. Gill,  
 M. Head-Gordon,  J. M. Herbert,  A. I. Krylov

 Contributors to earlier versions of Q-Chem not listed above: 
 R. D. Adamson,  B. Austin,  R. Baer,  J. Baker,  G. J. O. Beran,  
 K. Brandhorst,  S. T. Brown,  E. F. C. Byrd,  Arup K. Chakraborty,  
 G. K. L. Chan,  Chun-Min Chang,  Yunqing Chen,  C.-L. Cheng,  
 Siu Hung Chien,  D. M. Chipman,  D. L. Crittenden,  H. Dachsel,  
 R. J. Doerksen,  A. D. Dutoi,  R. G. Edgar,  J. Fosso-Tande,  
 L. Fusti-Molnar,  D. Ghosh,  A. Ghysels,  A. Golubeva-Zadorozhnaya,  
 J. Gonthier,  M. S. Gordon,  S. R. Gwaltney,  G. Hawkins,  J. E. Herr,  
 A. Heyden,  S. Hirata,  E. G. Hohenstein,  G. Kedziora,  F. J. Keil,  
 C. Kelley,  Jihan Kim,  R. A. King,  R. Z. Khaliullin,  P. P. Korambath,  
 W. Kurlancheek,  A. Laurent,  A. M. Lee,  M. S. Lee,  S. V. Levchenko,  
 Ching Yeh Lin,  D. Liotard,  E. Livshits,  R. C. Lochan,  I. Lotan,  
 L. A. Martinez-Martinez,  P. E. Maslen,  N. Nair,  D. P. O'Neill,  
 D. Neuhauser,  E. Neuscamman,  C. M. Oana,  R. Olivares-Amaya,  R. Olson,  
 T. M. Perrine,  B. Peters,  P. A. Pieniazek,  A. Prociuk,  Y. M. Rhee,  
 J. Ritchie,  M. A. Rohrdanz,  E. Rosta,  N. J. Russ,  H. F. Schaefer III,  
 M. W. Schmidt,  N. E. Schultz,  S. Sharma,  N. Shenvi,  C. D. Sherrill,  
 A. C. Simmonett,  A. Sodt,  T. Stein,  D. Stuck,  K. S. Thanthiriwatte,  
 V. Vanovschi,  L. Vogt,  Tao Wang,  A. Warshel,  M. A. Watson,  
 C. F. Williams,  Q. Wu,  X. Xu,  Jun Yang,  W. Zhang,  Yan Zhao

   Please cite Q-Chem as follows:
  "Software for the frontiers of quantum chemistry:
   An overview of developments in the Q-Chem 5 package"
   J. Chem. Phys. 155, 084801 (2021)
   https://doi.org/10.1063/5.0055522 (open access)

 Q-Chem 6.2.2 for Intel X86 EM64T Linux

 Parts of Q-Chem use Armadillo 9.900.5 (Nocturnal Misbehaviour).
 http://arma.sourceforge.net/

 Q-Chem begins on Thu Jan  9 13:27:39 2025  

 Host: compute-0-13.local
0

     Scratch files written to /scratch/keith/A1D0_1//
 Processing $rem in /home/keith/software/qchem/qchem_622/config/preferences:
 Processing $rem in /home/keith/.qchemrc:

 Checking the input file for inconsistencies... 	...done.

--------------------------------------------------------------
User input:
--------------------------------------------------------------
$molecule
read
$end

$rem
method                    b3lyp 
basis                     cc-pv5z 
mem_total                 63000
mem_static                8000
thresh                    12
scf_convergence           8
xc_grid                   000075000302
max_scf_cycles            2000
symmetry                  false
sym_ignore                true
scf_guess                 read
skip_scfman               true
cis_n_roots               150
cis_triplets              false
rpa                       false 
trnss                     true
trtype                    3
n_sol                     1
nto_pairs                 2
gui                       2
print_orbitals            true
state_analysis            true
$end

$solute 
3 
$end
--------------------------------------------------------------
 ----------------------------------------------------------------
             Standard Nuclear Orientation (Angstroms)
    I     Atom           X                Y                Z
 ----------------------------------------------------------------
    1      O      -0.2254500000    -0.1840200000     0.1743300000
    2      O      -0.9258100000     1.1309800000    -1.8136700000
    3      H      -1.1069800000     0.7609800000    -2.6966700000
    4      H      -0.1281600000     1.6839800000    -1.9466700000
    5      H      -0.6703200000    -0.9699200000     0.4773300000
    6      H      -0.5551400000     0.0809800000    -0.6606700000
    7      O      -0.5189800000    -3.4815200000     0.0183300000
    8      H       0.2597400000    -2.8794200000     0.1103300000
    9      H      -1.1318800000    -3.1145200000    -0.6086700000
   10      O       2.0690400000    -2.3486200000    -0.3206700000
   11      H       2.6683400000    -2.9721200000     0.1053300000
   12      H       2.4352400000    -1.4431200000    -0.2616700000
   13      O       2.4780400000     0.5499800000     0.3663300000
   14      H       1.5362400000     0.5299800000     0.4163300000
   15      H       2.5797400000     1.0999800000    -0.4616700000
   16      O       0.3617400000     2.2379800000     2.4383300000
   17      H      -0.1613600000     1.7399800000     1.8133300000
   18      H       1.0775400000     1.5879800000     2.6973300000
   19      O      -3.2944600000     2.0749800000    -0.6516700000
   20      H      -3.4417600000     2.6279800000    -1.4066700000
   21      H      -2.4743600000     1.5889800000    -0.9316700000
 ----------------------------------------------------------------
 Nuclear Repulsion Energy =         349.41353692 hartrees
 There are       35 alpha and       35 beta electrons
 Requested basis set is cc-pV5Z
 There are 357 shells and 1407 basis functions

 Total QAlloc Memory Limit  63000 MB
 Mega-Array Size      7821 MB
 MEM_STATIC part      8000 MB

 A cutoff of  1.0D-12 yielded  38887 shell pairs
 There are    511623 function pairs (    845599 Cartesian)
 Smallest overlap matrix eigenvalue = 2.13E-05

 Scale SEOQF with 1.000000e-01/1.000000e-01/1.000000e-01

 Standard Electronic Orientation quadrupole field applied
 Nucleus-field energy     =     0.0000000166 hartrees
 Guess MOs from SCF MO coefficient file
 Reading MOs from coefficient file
 Reading MOs from coefficient file
 Skipping gen_scfman as requested.
 MAX_CIS_SUBSPACE fits in available memory
 Direct TDDFT/TDA calculation will be performed
 Exchange:     0.2000 Hartree-Fock + 0.0800 Slater + 0.7200 B88
 Correlation:  0.1900 VWN1RPA + 0.8100 LYP
 Using Euler-Maclaurin-Lebedev (75,302) quadrature formula
 Singlet excitation energies requested
 CIS energy converged when residual is below 10e- 6
   
 ***Using a Restricted Set of Single Excitations***
   
 RCIS calculation
   
 Excitations from specified occupied orbitals
 -------------------------------------------------------------
              Orbitals in Truncated CIS space
 -------------------------------------------------------------
     3  36  37  38  39  40  41  42  43  44  45  46  47  48  49
    50  51  52  53  54  55  56  57  58  59  60  61  62  63  64
    65  66  67  68  69  70  71  72  73  74  75  76  77  78  79
    80  81  82  83  84  85  86  87  88  89  90  91  92  93  94
    95  96  97  98  99 100 101 102 103 104 105 106 107 108 109
   110 111 112 113 114 115 116 117 118 119 120 121 122 123 124
   125 126 127 128 129 130 131 132 133 134 135 136 137 138 139
   140 141 142 143 144 145 146 147 148 149 150 151 152 153 154
   155 156 157 158 159 160 161 162 163 164 165 166 167 168 169
   170 171 172 173 174 175 176 177 178 179 180 181 182 183 184
   185 186 187 188 189 190 191 192 193 194 195 196 197 198 199
   200 201 202 203 204 205 206 207 208 209 210 211 212 213 214
   215 216 217 218 219 220 221 222 223 224 225 226 227 228 229
   230 231 232 233 234 235 236 237 238 239 240 241 242 243 244
   245 246 247 248 249 250 251 252 253 254 255 256 257 258 259
   260 261 262 263 264 265 266 267 268 269 270 271 272 273 274
   275 276 277 278 279 280 281 282 283 284 285 286 287 288 289
   290 291 292 293 294 295 296 297 298 299 300 301 302 303 304
   305 306 307 308 309 310 311 312 313 314 315 316 317 318 319
   320 321 322 323 324 325 326 327 328 329 330 331 332 333 334
   335 336 337 338 339 340 341 342 343 344 345 346 347 348 349
   350 351 352 353 354 355 356 357 358 359 360 361 362 363 364
   365 366 367 368 369 370 371 372 373 374 375 376 377 378 379
   380 381 382 383 384 385 386 387 388 389 390 391 392 393 394
   395 396 397 398 399 400 401 402 403 404 405 406 407 408 409
   410 411 412 413 414 415 416 417 418 419 420 421 422 423 424
   425 426 427 428 429 430 431 432 433 434 435 436 437 438 439
   440 441 442 443 444 445 446 447 448 449 450 451 452 453 454
   455 456 457 458 459 460 461 462 463 464 465 466 467 468 469
   470 471 472 473 474 475 476 477 478 479 480 481 482 483 484
   485 486 487 488 489 490 491 492 493 494 495 496 497 498 499
   500 501 502 503 504 505 506 507 508 509 510 511 512 513 514
   515 516 517 518 519 520 521 522 523 524 525 526 527 528 529
   530 531 532 533 534 535 536 537 538 539 540 541 542 543 544
   545 546 547 548 549 550 551 552 553 554 555 556 557 558 559
   560 561 562 563 564 565 566 567 568 569 570 571 572 573 574
   575 576 577 578 579 580 581 582 583 584 585 586 587 588 589
   590 591 592 593 594 595 596 597 598 599 600 601 602 603 604
   605 606 607 608 609 610 611 612 613 614 615 616 617 618 619
   620 621 622 623 624 625 626 627 628 629 630 631 632 633 634
   635 636 637 638 639 640 641 642 643 644 645 646 647 648 649
   650 651 652 653 654 655 656 657 658 659 660 661 662 663 664
   665 666 667 668 669 670 671 672 673 674 675 676 677 678 679
   680 681 682 683 684 685 686 687 688 689 690 691 692 693 694
   695 696 697 698 699 700 701 702 703 704 705 706 707 708 709
   710 711 712 713 714 715 716 717 718 719 720 721 722 723 724
   725 726 727 728 729 730 731 732 733 734 735 736 737 738 739
   740 741 742 743 744 745 746 747 748 749 750 751 752 753 754
   755 756 757 758 759 760 761 762 763 764 765 766 767 768 769
   770 771 772 773 774 775 776 777 778 779 780 781 782 783 784
   785 786 787 788 789 790 791 792 793 794 795 796 797 798 799
   800 801 802 803 804 805 806 807 808 809 810 811 812 813 814
   815 816 817 818 819 820 821 822 823 824 825 826 827 828 829
   830 831 832 833 834 835 836 837 838 839 840 841 842 843 844
   845 846 847 848 849 850 851 852 853 854 855 856 857 858 859
   860 861 862 863 864 865 866 867 868 869 870 871 872 873 874
   875 876 877 878 879 880 881 882 883 884 885 886 887 888 889
   890 891 892 893 894 895 896 897 898 899 900 901 902 903 904
   905 906 907 908 909 910 911 912 913 914 915 916 917 918 919
   920 921 922 923 924 925 926 927 928 929 930 931 932 933 934
   935 936 937 938 939 940 941 942 943 944 945 946 947 948 949
   950 951 952 953 954 955 956 957 958 959 960 961 962 963 964
   965 966 967 968 969 970 971 972 973 974 975 976 977 978 979
   980 981 982 983 984 985 986 987 988 989 990 991 992 993 994
   995 996 997 998 9991000100110021003100410051006100710081009
  101010111012101310141015101610171018101910201021102210231024
  102510261027102810291030103110321033103410351036103710381039
  104010411042104310441045104610471048104910501051105210531054
  105510561057105810591060106110621063106410651066106710681069
  107010711072107310741075107610771078107910801081108210831084
  108510861087108810891090109110921093109410951096109710981099
  110011011102110311041105110611071108110911101111111211131114
  111511161117111811191120112111221123112411251126112711281129
  113011311132113311341135113611371138113911401141114211431144
  114511461147114811491150115111521153115411551156115711581159
  116011611162116311641165116611671168116911701171117211731174
  117511761177117811791180118111821183118411851186118711881189
  119011911192119311941195119611971198119912001201120212031204
  120512061207120812091210121112121213121412151216121712181219
  122012211222122312241225122612271228122912301231123212331234
  123512361237123812391240124112421243124412451246124712481249
  125012511252125312541255125612571258125912601261126212631264
  126512661267126812691270127112721273127412751276127712781279
  128012811282128312841285128612871288128912901291129212931294
  129512961297129812991300130113021303130413051306130713081309
  131013111312131313141315131613171318131913201321132213231324
  132513261327132813291330133113321333133413351336133713381339
  134013411342134313441345134613471348134913501351135213531354
  135513561357135813591360136113621363136413651366136713681369
  137013711372137313741375137613771378137913801381138213831384
  138513861387138813891390139113921393139413951396139713981399
  14001401140214031404140514061407
   
    Number of Occupied Orbitals =    1  out of    35
    Number of Virtual Orbitals  = 1372  out of  1372
 -------------------------------------------------------------
 Number of Roots adjusted to:         150
 ---------------------------------------------------
 Iter    Rts Conv    Rts Left    Ttl Dev     Max Dev
 ---------------------------------------------------
   1         0         150      0.012887    0.000198
   2        31         119      0.008142    0.000119
   3       145           5      0.008127    0.000119
   4       150           0      0.008127    0.000119    Roots Converged
 ---------------------------------------------------

 ---------------------------------------------------
         TDDFT/TDA Excitation Energies              
 ---------------------------------------------------

 Excited state   1: excitation energy (eV) =     517.9608
 Total energy for state   1:                  -516.29621576 au
    Multiplicity: Singlet
    Trans. Mom.: -0.0033 X  -0.0007 Y  -0.0048 Z
    Strength   :     0.0004430529
    D(    3) --> V(    1) amplitude =  0.9949

 Excited state   2: excitation energy (eV) =     519.4171
 Total energy for state   2:                  -516.24269897 au
    Multiplicity: Singlet
    Trans. Mom.:  0.0011 X   0.0110 Y  -0.0081 Z
    Strength   :     0.0023992516
    D(    3) --> V(    2) amplitude =  0.7975
    D(    3) --> V(    3) amplitude = -0.5592

 Excited state   3: excitation energy (eV) =     519.4397
 Total energy for state   3:                  -516.24187020 au
    Multiplicity: Singlet
    Trans. Mom.: -0.0141 X  -0.0136 Y  -0.0007 Z
    Strength   :     0.0049027510
    D(    3) --> V(    2) amplitude =  0.5932
    D(    3) --> V(    3) amplitude =  0.7740

 Excited state   4: excitation energy (eV) =     520.2552
 Total energy for state   4:                  -516.21189853 au
    Multiplicity: Singlet
    Trans. Mom.: -0.0086 X   0.0069 Y   0.0119 Z
    Strength   :     0.0033551060
    D(    3) --> V(    4) amplitude =  0.9342

 Excited state   5: excitation energy (eV) =     520.5280
 Total energy for state   5:                  -516.20187585 au
    Multiplicity: Singlet
    Trans. Mom.:  0.0098 X   0.0110 Y   0.0023 Z
    Strength   :     0.0028334257
    D(    3) --> V(    5) amplitude =  0.7885
    D(    3) --> V(    6) amplitude = -0.5546

 Excited state   6: excitation energy (eV) =     520.7706
 Total energy for state   6:                  -516.19295829 au
    Multiplicity: Singlet
    Trans. Mom.: -0.0027 X  -0.0032 Y  -0.0020 Z
    Strength   :     0.0002742635
    D(    3) --> V(    5) amplitude =  0.5447
    D(    3) --> V(    6) amplitude =  0.8073

 Excited state   7: excitation energy (eV) =     521.0689
 Total energy for state   7:                  -516.18199586 au
    Multiplicity: Singlet
    Trans. Mom.: -0.0027 X  -0.0007 Y   0.0049 Z
    Strength   :     0.0004015017
    D(    3) --> V(    7) amplitude =  0.9740

 Excited state   8: excitation energy (eV) =     521.5497
 Total energy for state   8:                  -516.16432610 au
    Multiplicity: Singlet
    Trans. Mom.:  0.0084 X   0.0139 Y  -0.0115 Z
    Strength   :     0.0050300647
    D(    3) --> V(    8) amplitude =  0.8544
    D(    3) --> V(    9) amplitude =  0.4443

 Excited state   9: excitation energy (eV) =     521.8721
 Total energy for state   9:                  -516.15247851 au
    Multiplicity: Singlet
    Trans. Mom.: -0.0036 X   0.0161 Y  -0.0044 Z
    Strength   :     0.0037294659
    D(    3) --> V(    8) amplitude = -0.4644
    D(    3) --> V(    9) amplitude =  0.8725

 Excited state  10: excitation energy (eV) =     522.2841
 Total energy for state  10:                  -516.13733918 au
    Multiplicity: Singlet
    Trans. Mom.: -0.0028 X  -0.0078 Y  -0.0157 Z
    Strength   :     0.0040168144
    D(    3) --> V(   10) amplitude =  0.9394
    D(    3) --> V(   11) amplitude = -0.2238

 Excited state  11: excitation energy (eV) =     522.4912
 Total energy for state  11:                  -516.12972968 au
    Multiplicity: Singlet
    Trans. Mom.:  0.0145 X  -0.0029 Y  -0.0021 Z
    Strength   :     0.0028495462
    D(    3) --> V(   11) amplitude =  0.9172
    D(    3) --> V(   12) amplitude = -0.3274

 Excited state  12: excitation energy (eV) =     522.9037
 Total energy for state  12:                  -516.11456893 au
    Multiplicity: Singlet
    Trans. Mom.: -0.0084 X   0.0023 Y   0.0065 Z
    Strength   :     0.0015013099
    D(    3) --> V(   11) amplitude =  0.3057
    D(    3) --> V(   12) amplitude =  0.8766
    D(    3) --> V(   13) amplitude = -0.2937

 Excited state  13: excitation energy (eV) =     523.2350
 Total energy for state  13:                  -516.10239422 au
    Multiplicity: Singlet
    Trans. Mom.:  0.0071 X   0.0060 Y   0.0061 Z
    Strength   :     0.0015791279
    D(    3) --> V(   12) amplitude =  0.2769
    D(    3) --> V(   13) amplitude =  0.9329

 Excited state  14: excitation energy (eV) =     523.5551
 Total energy for state  14:                  -516.09063013 au
    Multiplicity: Singlet
    Trans. Mom.:  0.0043 X   0.0062 Y  -0.0068 Z
    Strength   :     0.0013125883
    D(    3) --> V(   14) amplitude =  0.9314
    D(    3) --> V(   15) amplitude = -0.2688

 Excited state  15: excitation energy (eV) =     524.0343
 Total energy for state  15:                  -516.07302130 au
    Multiplicity: Singlet
    Trans. Mom.: -0.0086 X  -0.0172 Y  -0.0012 Z
    Strength   :     0.0047540127
    D(    3) --> V(   14) amplitude =  0.2909
    D(    3) --> V(   15) amplitude =  0.9010

 Excited state  16: excitation energy (eV) =     524.4624
 Total energy for state  16:                  -516.05728844 au
    Multiplicity: Singlet
    Trans. Mom.: -0.0091 X  -0.0089 Y  -0.0085 Z
    Strength   :     0.0030197707
    D(    3) --> V(   16) amplitude =  0.9218
    D(    3) --> V(   18) amplitude = -0.2546

 Excited state  17: excitation energy (eV) =     524.7351
 Total energy for state  17:                  -516.04726472 au
    Multiplicity: Singlet
    Trans. Mom.:  0.0010 X  -0.0007 Y   0.0054 Z
    Strength   :     0.0003957617
    D(    3) --> V(   17) amplitude =  0.9032
    D(    3) --> V(   18) amplitude =  0.3883

 Excited state  18: excitation energy (eV) =     524.8786
 Total energy for state  18:                  -516.04199317 au
    Multiplicity: Singlet
    Trans. Mom.:  0.0079 X  -0.0027 Y  -0.0005 Z
    Strength   :     0.0008905671
    D(    3) --> V(   16) amplitude =  0.3059
    D(    3) --> V(   17) amplitude = -0.3598
    D(    3) --> V(   18) amplitude =  0.8628

 Excited state  19: excitation energy (eV) =     525.0834
 Total energy for state  19:                  -516.03446784 au
    Multiplicity: Singlet
    Trans. Mom.:  0.0008 X  -0.0116 Y  -0.0043 Z
    Strength   :     0.0019714858
    D(    3) --> V(   19) amplitude =  0.9504

 Excited state  20: excitation energy (eV) =     525.5113
 Total energy for state  20:                  -516.01874231 au
    Multiplicity: Singlet
    Trans. Mom.:  0.0087 X  -0.0142 Y   0.0057 Z
    Strength   :     0.0039821380
    D(    3) --> V(   20) amplitude =  0.9113

 Excited state  21: excitation energy (eV) =     525.6654
 Total energy for state  21:                  -516.01307951 au
    Multiplicity: Singlet
    Trans. Mom.: -0.0064 X  -0.0134 Y   0.0021 Z
    Strength   :     0.0029170495
    D(    3) --> V(   21) amplitude =  0.8701
    D(    3) --> V(   22) amplitude = -0.2239
    D(    3) --> V(   23) amplitude = -0.2770

 Excited state  22: excitation energy (eV) =     525.7992
 Total energy for state  22:                  -516.00816281 au
    Multiplicity: Singlet
    Trans. Mom.:  0.0012 X   0.0083 Y  -0.0132 Z
    Strength   :     0.0031719319
    D(    3) --> V(   20) amplitude =  0.2459
    D(    3) --> V(   21) amplitude =  0.2578
    D(    3) --> V(   22) amplitude = -0.3875
    D(    3) --> V(   23) amplitude =  0.6993
    D(    3) --> V(   25) amplitude =  0.2733
    D(    3) --> V(   26) amplitude =  0.2454

 Excited state  23: excitation energy (eV) =     525.8892
 Total energy for state  23:                  -516.00485507 au
    Multiplicity: Singlet
    Trans. Mom.:  0.0056 X  -0.0020 Y   0.0072 Z
    Strength   :     0.0011155269
    D(    3) --> V(   21) amplitude =  0.3227
    D(    3) --> V(   22) amplitude =  0.8468
    D(    3) --> V(   23) amplitude =  0.3458

 Excited state  24: excitation energy (eV) =     525.9621
 Total energy for state  24:                  -516.00217553 au
    Multiplicity: Singlet
    Trans. Mom.:  0.0096 X   0.0004 Y  -0.0170 Z
    Strength   :     0.0048975905
    D(    3) --> V(   23) amplitude = -0.4929
    D(    3) --> V(   24) amplitude =  0.2952
    D(    3) --> V(   25) amplitude =  0.4419
    D(    3) --> V(   26) amplitude =  0.5858

 Excited state  25: excitation energy (eV) =     526.1266
 Total energy for state  25:                  -515.99612807 au
    Multiplicity: Singlet
    Trans. Mom.: -0.0027 X   0.0059 Y   0.0048 Z
    Strength   :     0.0008352482
    D(    3) --> V(   24) amplitude =  0.8249
    D(    3) --> V(   25) amplitude = -0.5063

 Excited state  26: excitation energy (eV) =     526.2436
 Total energy for state  26:                  -515.99182820 au
    Multiplicity: Singlet
    Trans. Mom.:  0.0032 X  -0.0012 Y   0.0035 Z
    Strength   :     0.0003093393
    D(    3) --> V(   24) amplitude = -0.3297
    D(    3) --> V(   25) amplitude = -0.4248
    D(    3) --> V(   26) amplitude =  0.7053
    D(    3) --> V(   27) amplitude =  0.3692

 Excited state  27: excitation energy (eV) =     526.3911
 Total energy for state  27:                  -515.98640898 au
    Multiplicity: Singlet
    Trans. Mom.:  0.0077 X   0.0009 Y   0.0055 Z
    Strength   :     0.0011640308
    D(    3) --> V(   25) amplitude =  0.4890
    D(    3) --> V(   27) amplitude =  0.7021
    D(    3) --> V(   28) amplitude = -0.3375
    D(    3) --> V(   29) amplitude =  0.2441

 Excited state  28: excitation energy (eV) =     526.5218
 Total energy for state  28:                  -515.98160733 au
    Multiplicity: Singlet
    Trans. Mom.: -0.0161 X   0.0012 Y  -0.0138 Z
    Strength   :     0.0058204512
    D(    3) --> V(   27) amplitude =  0.5232
    D(    3) --> V(   28) amplitude =  0.7184
    D(    3) --> V(   29) amplitude = -0.2345

 Excited state  29: excitation energy (eV) =     526.7309
 Total energy for state  29:                  -515.97392243 au
    Multiplicity: Singlet
    Trans. Mom.:  0.0035 X  -0.0034 Y   0.0030 Z
    Strength   :     0.0004268903
    D(    3) --> V(   28) amplitude =  0.4099
    D(    3) --> V(   29) amplitude =  0.8782

 Excited state  30: excitation energy (eV) =     526.8367
 Total energy for state  30:                  -515.97003209 au
    Multiplicity: Singlet
    Trans. Mom.: -0.0021 X  -0.0030 Y   0.0089 Z
    Strength   :     0.0012012633
    D(    3) --> V(   30) amplitude =  0.9296

 Excited state  31: excitation energy (eV) =     527.0163
 Total energy for state  31:                  -515.96343351 au
    Multiplicity: Singlet
    Trans. Mom.:  0.0045 X   0.0034 Y   0.0048 Z
    Strength   :     0.0007060495
    D(    3) --> V(   30) amplitude = -0.2336
    D(    3) --> V(   31) amplitude =  0.9134
    D(    3) --> V(   32) amplitude =  0.2245

 Excited state  32: excitation energy (eV) =     527.1228
 Total energy for state  32:                  -515.95952139 au
    Multiplicity: Singlet
    Trans. Mom.: -0.0023 X  -0.0055 Y   0.0050 Z
    Strength   :     0.0007859953
    D(    3) --> V(   31) amplitude = -0.2684
    D(    3) --> V(   32) amplitude =  0.8408
    D(    3) --> V(   33) amplitude = -0.3737

 Excited state  33: excitation energy (eV) =     527.1484
 Total energy for state  33:                  -515.95857991 au
    Multiplicity: Singlet
    Trans. Mom.:  0.0137 X  -0.0009 Y   0.0109 Z
    Strength   :     0.0039720930
    D(    3) --> V(   28) amplitude =  0.2167
    D(    3) --> V(   32) amplitude =  0.3973
    D(    3) --> V(   33) amplitude =  0.7829

 Excited state  34: excitation energy (eV) =     527.5378
 Total energy for state  34:                  -515.94427059 au
    Multiplicity: Singlet
    Trans. Mom.:  0.0003 X   0.0051 Y  -0.0071 Z
    Strength   :     0.0009880534
    D(    3) --> V(   34) amplitude =  0.9460

 Excited state  35: excitation energy (eV) =     527.7326
 Total energy for state  35:                  -515.93710952 au
    Multiplicity: Singlet
    Trans. Mom.:  0.0127 X  -0.0051 Y   0.0105 Z
    Strength   :     0.0038501837
    D(    3) --> V(   33) amplitude = -0.3509
    D(    3) --> V(   35) amplitude =  0.6157
    D(    3) --> V(   36) amplitude = -0.5048
    D(    3) --> V(   37) amplitude = -0.2161
    D(    3) --> V(   38) amplitude =  0.2735

 Excited state  36: excitation energy (eV) =     527.7842
 Total energy for state  36:                  -515.93521497 au
    Multiplicity: Singlet
    Trans. Mom.:  0.0017 X   0.0177 Y  -0.0117 Z
    Strength   :     0.0058694906
    D(    3) --> V(   34) amplitude = -0.2474
    D(    3) --> V(   35) amplitude =  0.6292
    D(    3) --> V(   36) amplitude =  0.4719
    D(    3) --> V(   38) amplitude = -0.4292

 Excited state  37: excitation energy (eV) =     528.1461
 Total energy for state  37:                  -515.92191600 au
    Multiplicity: Singlet
    Trans. Mom.: -0.0031 X  -0.0095 Y   0.0104 Z
    Strength   :     0.0026834951
    D(    3) --> V(   36) amplitude =  0.6028
    D(    3) --> V(   38) amplitude =  0.6905

 Excited state  38: excitation energy (eV) =     528.2341
 Total energy for state  38:                  -515.91868175 au
    Multiplicity: Singlet
    Trans. Mom.: -0.0064 X  -0.0039 Y  -0.0020 Z
    Strength   :     0.0007774338
    D(    3) --> V(   35) amplitude =  0.2839
    D(    3) --> V(   36) amplitude = -0.2776
    D(    3) --> V(   37) amplitude =  0.8541

 Excited state  39: excitation energy (eV) =     528.4139
 Total energy for state  39:                  -515.91207242 au
    Multiplicity: Singlet
    Trans. Mom.: -0.0131 X  -0.0022 Y   0.0119 Z
    Strength   :     0.0041113082
    D(    3) --> V(   37) amplitude = -0.2850
    D(    3) --> V(   39) amplitude =  0.7856
    D(    3) --> V(   40) amplitude = -0.3203
    D(    3) --> V(   42) amplitude = -0.3098

 Excited state  40: excitation energy (eV) =     528.6290
 Total energy for state  40:                  -515.90416901 au
    Multiplicity: Singlet
    Trans. Mom.: -0.0017 X   0.0010 Y  -0.0005 Z
    Strength   :     0.0000540312
    D(    3) --> V(   39) amplitude =  0.3970
    D(    3) --> V(   40) amplitude =  0.8818

 Excited state  41: excitation energy (eV) =     528.7736
 Total energy for state  41:                  -515.89885473 au
    Multiplicity: Singlet
    Trans. Mom.:  0.0010 X   0.0009 Y  -0.0094 Z
    Strength   :     0.0011709632
    D(    3) --> V(   37) amplitude = -0.2125
    D(    3) --> V(   38) amplitude =  0.2207
    D(    3) --> V(   39) amplitude =  0.2203
    D(    3) --> V(   41) amplitude =  0.8226
    D(    3) --> V(   42) amplitude =  0.3796

 Excited state  42: excitation energy (eV) =     528.9108
 Total energy for state  42:                  -515.89381199 au
    Multiplicity: Singlet
    Trans. Mom.: -0.0012 X   0.0083 Y  -0.0085 Z
    Strength   :     0.0018551353
    D(    3) --> V(   39) amplitude =  0.2407
    D(    3) --> V(   41) amplitude = -0.4676
    D(    3) --> V(   42) amplitude =  0.7177
    D(    3) --> V(   43) amplitude = -0.3335

 Excited state  43: excitation energy (eV) =     529.1675
 Total energy for state  43:                  -515.88437708 au
    Multiplicity: Singlet
    Trans. Mom.:  0.0081 X  -0.0021 Y   0.0034 Z
    Strength   :     0.0010485117
    D(    3) --> V(   42) amplitude =  0.3363
    D(    3) --> V(   43) amplitude =  0.9039

 Excited state  44: excitation energy (eV) =     529.5029
 Total energy for state  44:                  -515.87205434 au
    Multiplicity: Singlet
    Trans. Mom.:  0.0047 X  -0.0009 Y   0.0024 Z
    Strength   :     0.0003690972
    D(    3) --> V(   44) amplitude =  0.9794

 Excited state  45: excitation energy (eV) =     529.7760
 Total energy for state  45:                  -515.86201532 au
    Multiplicity: Singlet
    Trans. Mom.:  0.0058 X  -0.0018 Y   0.0026 Z
    Strength   :     0.0005729993
    D(    3) --> V(   45) amplitude =  0.8266
    D(    3) --> V(   46) amplitude =  0.4190
    D(    3) --> V(   47) amplitude = -0.2704

 Excited state  46: excitation energy (eV) =     530.0319
 Total energy for state  46:                  -515.85261262 au
    Multiplicity: Singlet
    Trans. Mom.:  0.0024 X  -0.0031 Y   0.0107 Z
    Strength   :     0.0016894316
    D(    3) --> V(   45) amplitude = -0.5259
    D(    3) --> V(   46) amplitude =  0.7122
    D(    3) --> V(   47) amplitude = -0.3822

 Excited state  47: excitation energy (eV) =     530.0729
 Total energy for state  47:                  -515.85110573 au
    Multiplicity: Singlet
    Trans. Mom.: -0.0043 X   0.0003 Y  -0.0037 Z
    Strength   :     0.0004149507
    D(    3) --> V(   46) amplitude =  0.4978
    D(    3) --> V(   47) amplitude =  0.8468

 Excited state  48: excitation energy (eV) =     530.3744
 Total energy for state  48:                  -515.84002650 au
    Multiplicity: Singlet
    Trans. Mom.:  0.0089 X  -0.0029 Y  -0.0131 Z
    Strength   :     0.0033904587
    D(    3) --> V(   48) amplitude =  0.9321
    D(    3) --> V(   49) amplitude =  0.2297

 Excited state  49: excitation energy (eV) =     530.6716
 Total energy for state  49:                  -515.82910543 au
    Multiplicity: Singlet
    Trans. Mom.: -0.0018 X   0.0043 Y  -0.0052 Z
    Strength   :     0.0006382519
    D(    3) --> V(   48) amplitude = -0.2725
    D(    3) --> V(   49) amplitude =  0.9340

 Excited state  50: excitation energy (eV) =     530.7689
 Total energy for state  50:                  -515.82552986 au
    Multiplicity: Singlet
    Trans. Mom.: -0.0006 X   0.0085 Y   0.0060 Z
    Strength   :     0.0014099895
    D(    3) --> V(   50) amplitude =  0.9528

 Excited state  51: excitation energy (eV) =     531.3586
 Total energy for state  51:                  -515.80385744 au
    Multiplicity: Singlet
    Trans. Mom.: -0.0099 X  -0.0013 Y   0.0085 Z
    Strength   :     0.0022358401
    D(    3) --> V(   51) amplitude = -0.6337
    D(    3) --> V(   52) amplitude =  0.7237

 Excited state  52: excitation energy (eV) =     531.5576
 Total energy for state  52:                  -515.79654472 au
    Multiplicity: Singlet
    Trans. Mom.: -0.0037 X   0.0016 Y  -0.0038 Z
    Strength   :     0.0003966688
    D(    3) --> V(   51) amplitude =  0.7044
    D(    3) --> V(   52) amplitude =  0.5621
    D(    3) --> V(   53) amplitude =  0.3831

 Excited state  53: excitation energy (eV) =     531.7419
 Total energy for state  53:                  -515.78977225 au
    Multiplicity: Singlet
    Trans. Mom.:  0.0081 X  -0.0020 Y  -0.0079 Z
    Strength   :     0.0017254572
    D(    3) --> V(   51) amplitude = -0.2504
    D(    3) --> V(   52) amplitude = -0.2961
    D(    3) --> V(   53) amplitude =  0.8749

 Excited state  54: excitation energy (eV) =     532.1277
 Total energy for state  54:                  -515.77559373 au
    Multiplicity: Singlet
    Trans. Mom.: -0.0002 X   0.0069 Y   0.0062 Z
    Strength   :     0.0011120688
    D(    3) --> V(   54) amplitude =  0.9509

 Excited state  55: excitation energy (eV) =     532.2309
 Total energy for state  55:                  -515.77179940 au
    Multiplicity: Singlet
    Trans. Mom.:  0.0058 X   0.0047 Y   0.0156 Z
    Strength   :     0.0039170765
    D(    3) --> V(   56) amplitude =  0.9607

 Excited state  56: excitation energy (eV) =     532.3127
 Total energy for state  56:                  -515.76879574 au
    Multiplicity: Singlet
    Trans. Mom.: -0.0133 X   0.0013 Y   0.0015 Z
    Strength   :     0.0023724463
    D(    3) --> V(   55) amplitude =  0.9259
    D(    3) --> V(   57) amplitude =  0.2373

 Excited state  57: excitation energy (eV) =     532.7009
 Total energy for state  57:                  -515.75452973 au
    Multiplicity: Singlet
    Trans. Mom.: -0.0026 X   0.0027 Y   0.0026 Z
    Strength   :     0.0002740947
    D(    3) --> V(   55) amplitude = -0.2361
    D(    3) --> V(   57) amplitude =  0.9509

 Excited state  58: excitation energy (eV) =     532.7729
 Total energy for state  58:                  -515.75188221 au
    Multiplicity: Singlet
    Trans. Mom.:  0.0016 X  -0.0119 Y   0.0018 Z
    Strength   :     0.0019088005
    D(    3) --> V(   58) amplitude =  0.9459

 Excited state  59: excitation energy (eV) =     533.3730
 Total energy for state  59:                  -515.72982887 au
    Multiplicity: Singlet
    Trans. Mom.: -0.0000 X   0.0038 Y  -0.0035 Z
    Strength   :     0.0003445078
    D(    3) --> V(   59) amplitude =  0.9470
    D(    3) --> V(   60) amplitude =  0.2171

 Excited state  60: excitation energy (eV) =     533.7481
 Total energy for state  60:                  -515.71604609 au
    Multiplicity: Singlet
    Trans. Mom.:  0.0008 X   0.0038 Y   0.0021 Z
    Strength   :     0.0002488222
    D(    3) --> V(   59) amplitude = -0.2424
    D(    3) --> V(   60) amplitude =  0.8689
    D(    3) --> V(   62) amplitude =  0.3726

 Excited state  61: excitation energy (eV) =     533.8545
 Total energy for state  61:                  -515.71213580 au
    Multiplicity: Singlet
    Trans. Mom.:  0.0008 X   0.0121 Y  -0.0023 Z
    Strength   :     0.0019749712
    D(    3) --> V(   60) amplitude = -0.3895
    D(    3) --> V(   61) amplitude =  0.6326
    D(    3) --> V(   62) amplitude =  0.6421

 Excited state  62: excitation energy (eV) =     534.0411
 Total energy for state  62:                  -515.70527511 au
    Multiplicity: Singlet
    Trans. Mom.:  0.0004 X  -0.0013 Y   0.0009 Z
    Strength   :     0.0000364860
    D(    3) --> V(   61) amplitude =  0.7505
    D(    3) --> V(   62) amplitude = -0.6299

 Excited state  63: excitation energy (eV) =     534.6248
 Total energy for state  63:                  -515.68382773 au
    Multiplicity: Singlet
    Trans. Mom.: -0.0035 X  -0.0062 Y  -0.0042 Z
    Strength   :     0.0008964073
    D(    3) --> V(   63) amplitude =  0.9440
    D(    3) --> V(   64) amplitude = -0.2375

 Excited state  64: excitation energy (eV) =     534.9274
 Total energy for state  64:                  -515.67270558 au
    Multiplicity: Singlet
    Trans. Mom.:  0.0033 X   0.0063 Y   0.0064 Z
    Strength   :     0.0012036423
    D(    3) --> V(   63) amplitude =  0.2786
    D(    3) --> V(   64) amplitude =  0.8677
    D(    3) --> V(   65) amplitude =  0.3861

 Excited state  65: excitation energy (eV) =     535.2115
 Total energy for state  65:                  -515.66226375 au
    Multiplicity: Singlet
    Trans. Mom.: -0.0009 X   0.0060 Y   0.0011 Z
    Strength   :     0.0004976066
    D(    3) --> V(   64) amplitude = -0.4190
    D(    3) --> V(   65) amplitude =  0.8882

 Excited state  66: excitation energy (eV) =     535.6714
 Total energy for state  66:                  -515.64536581 au
    Multiplicity: Singlet
    Trans. Mom.: -0.0043 X   0.0043 Y  -0.0015 Z
    Strength   :     0.0005167602
    D(    3) --> V(   66) amplitude = -0.4901
    D(    3) --> V(   67) amplitude =  0.8431

 Excited state  67: excitation energy (eV) =     535.7580
 Total energy for state  67:                  -515.64218202 au
    Multiplicity: Singlet
    Trans. Mom.: -0.0039 X   0.0053 Y  -0.0026 Z
    Strength   :     0.0006638982
    D(    3) --> V(   66) amplitude =  0.8551
    D(    3) --> V(   67) amplitude =  0.4800

 Excited state  68: excitation energy (eV) =     535.9256
 Total energy for state  68:                  -515.63602107 au
    Multiplicity: Singlet
    Trans. Mom.:  0.0054 X  -0.0156 Y   0.0011 Z
    Strength   :     0.0036078594
    D(    3) --> V(   68) amplitude =  0.9511
    D(    3) --> V(   69) amplitude =  0.2128

 Excited state  69: excitation energy (eV) =     536.1991
 Total energy for state  69:                  -515.62597142 au
    Multiplicity: Singlet
    Trans. Mom.:  0.0098 X  -0.0029 Y  -0.0025 Z
    Strength   :     0.0014544889
    D(    3) --> V(   69) amplitude =  0.9578

 Excited state  70: excitation energy (eV) =     536.7314
 Total energy for state  70:                  -515.60641050 au
    Multiplicity: Singlet
    Trans. Mom.: -0.0037 X   0.0026 Y  -0.0077 Z
    Strength   :     0.0010539422
    D(    3) --> V(   70) amplitude =  0.9094
    D(    3) --> V(   71) amplitude =  0.3018

 Excited state  71: excitation energy (eV) =     537.1273
 Total energy for state  71:                  -515.59186059 au
    Multiplicity: Singlet
    Trans. Mom.: -0.0073 X  -0.0056 Y  -0.0018 Z
    Strength   :     0.0011589179
    D(    3) --> V(   70) amplitude = -0.3321
    D(    3) --> V(   71) amplitude =  0.9104

 Excited state  72: excitation energy (eV) =     537.4927
 Total energy for state  72:                  -515.57843354 au
    Multiplicity: Singlet
    Trans. Mom.: -0.0019 X  -0.0072 Y   0.0076 Z
    Strength   :     0.0015020907
    D(    3) --> V(   72) amplitude =  0.9262
    D(    3) --> V(   73) amplitude = -0.2875

 Excited state  73: excitation energy (eV) =     537.8019
 Total energy for state  73:                  -515.56706878 au
    Multiplicity: Singlet
    Trans. Mom.: -0.0009 X   0.0041 Y   0.0040 Z
    Strength   :     0.0004435947
    D(    3) --> V(   73) amplitude =  0.2374
    D(    3) --> V(   74) amplitude =  0.8140
    D(    3) --> V(   75) amplitude = -0.4679

 Excited state  74: excitation energy (eV) =     537.8390
 Total energy for state  74:                  -515.56570572 au
    Multiplicity: Singlet
    Trans. Mom.: -0.0013 X   0.0007 Y  -0.0002 Z
    Strength   :     0.0000298585
    D(    3) --> V(   72) amplitude =  0.3174
    D(    3) --> V(   73) amplitude =  0.8997
    D(    3) --> V(   75) amplitude =  0.2210

 Excited state  75: excitation energy (eV) =     537.9581
 Total energy for state  75:                  -515.56132878 au
    Multiplicity: Singlet
    Trans. Mom.:  0.0008 X  -0.0004 Y   0.0005 Z
    Strength   :     0.0000138096
    D(    3) --> V(   74) amplitude =  0.5126
    D(    3) --> V(   75) amplitude =  0.8336

 Excited state  76: excitation energy (eV) =     538.2077
 Total energy for state  76:                  -515.55215610 au
    Multiplicity: Singlet
    Trans. Mom.: -0.0018 X   0.0005 Y   0.0009 Z
    Strength   :     0.0000542970
    D(    3) --> V(   76) amplitude =  0.9693

 Excited state  77: excitation energy (eV) =     538.5482
 Total energy for state  77:                  -515.53964271 au
    Multiplicity: Singlet
    Trans. Mom.:  0.0039 X  -0.0062 Y   0.0013 Z
    Strength   :     0.0007238326
    D(    3) --> V(   77) amplitude =  0.9320
    D(    3) --> V(   78) amplitude = -0.2584

 Excited state  78: excitation energy (eV) =     538.7754
 Total energy for state  78:                  -515.53129592 au
    Multiplicity: Singlet
    Trans. Mom.:  0.0005 X  -0.0012 Y  -0.0037 Z
    Strength   :     0.0002039683
    D(    3) --> V(   77) amplitude =  0.3028
    D(    3) --> V(   78) amplitude =  0.9272

 Excited state  79: excitation energy (eV) =     538.9333
 Total energy for state  79:                  -515.52549238 au
    Multiplicity: Singlet
    Trans. Mom.:  0.0003 X  -0.0015 Y   0.0005 Z
    Strength   :     0.0000345922
    D(    3) --> V(   78) amplitude =  0.2140
    D(    3) --> V(   79) amplitude =  0.9463

 Excited state  80: excitation energy (eV) =     539.3241
 Total energy for state  80:                  -515.51113063 au
    Multiplicity: Singlet
    Trans. Mom.: -0.0027 X  -0.0025 Y   0.0039 Z
    Strength   :     0.0003848667
    D(    3) --> V(   80) amplitude =  0.8520
    D(    3) --> V(   81) amplitude = -0.4079
    D(    3) --> V(   82) amplitude =  0.2702

 Excited state  81: excitation energy (eV) =     539.4379
 Total energy for state  81:                  -515.50694940 au
    Multiplicity: Singlet
    Trans. Mom.:  0.0063 X   0.0054 Y   0.0007 Z
    Strength   :     0.0009136520
    D(    3) --> V(   80) amplitude =  0.4958
    D(    3) --> V(   81) amplitude =  0.6708
    D(    3) --> V(   82) amplitude = -0.5240

 Excited state  82: excitation energy (eV) =     539.5563
 Total energy for state  82:                  -515.50259759 au
    Multiplicity: Singlet
    Trans. Mom.: -0.0004 X   0.0007 Y   0.0046 Z
    Strength   :     0.0002933278
    D(    3) --> V(   81) amplitude =  0.6051
    D(    3) --> V(   82) amplitude =  0.7877

 Excited state  83: excitation energy (eV) =     539.7400
 Total energy for state  83:                  -515.49584551 au
    Multiplicity: Singlet
    Trans. Mom.: -0.0013 X  -0.0030 Y   0.0030 Z
    Strength   :     0.0002648691
    D(    3) --> V(   83) amplitude =  0.9822

 Excited state  84: excitation energy (eV) =     540.0189
 Total energy for state  84:                  -515.48559803 au
    Multiplicity: Singlet
    Trans. Mom.: -0.0031 X   0.0005 Y  -0.0073 Z
    Strength   :     0.0008343677
    D(    3) --> V(   84) amplitude =  0.5047
    D(    3) --> V(   85) amplitude =  0.7938
    D(    3) --> V(   86) amplitude = -0.2360

 Excited state  85: excitation energy (eV) =     540.0756
 Total energy for state  85:                  -515.48351425 au
    Multiplicity: Singlet
    Trans. Mom.:  0.0012 X  -0.0031 Y   0.0016 Z
    Strength   :     0.0001804724
    D(    3) --> V(   84) amplitude =  0.8407
    D(    3) --> V(   85) amplitude = -0.4621

 Excited state  86: excitation energy (eV) =     540.3500
 Total energy for state  86:                  -515.47342930 au
    Multiplicity: Singlet
    Trans. Mom.: -0.0025 X  -0.0131 Y   0.0015 Z
    Strength   :     0.0023785604
    D(    3) --> V(   86) amplitude =  0.8326
    D(    3) --> V(   87) amplitude = -0.4700

 Excited state  87: excitation energy (eV) =     540.3909
 Total energy for state  87:                  -515.47192424 au
    Multiplicity: Singlet
    Trans. Mom.: -0.0007 X   0.0052 Y   0.0017 Z
    Strength   :     0.0004083811
    D(    3) --> V(   85) amplitude =  0.2993
    D(    3) --> V(   86) amplitude =  0.4197
    D(    3) --> V(   87) amplitude =  0.8458

 Excited state  88: excitation energy (eV) =     540.5705
 Total energy for state  88:                  -515.46532531 au
    Multiplicity: Singlet
    Trans. Mom.:  0.0044 X   0.0008 Y   0.0028 Z
    Strength   :     0.0003736397
    D(    3) --> V(   88) amplitude =  0.9642

 Excited state  89: excitation energy (eV) =     540.7365
 Total energy for state  89:                  -515.45922412 au
    Multiplicity: Singlet
    Trans. Mom.:  0.0035 X   0.0028 Y  -0.0010 Z
    Strength   :     0.0002827232
    D(    3) --> V(   89) amplitude =  0.9783

 Excited state  90: excitation energy (eV) =     541.1315
 Total energy for state  90:                  -515.44470797 au
    Multiplicity: Singlet
    Trans. Mom.:  0.0089 X  -0.0074 Y  -0.0033 Z
    Strength   :     0.0019237632
    D(    3) --> V(   90) amplitude =  0.9137
    D(    3) --> V(   91) amplitude = -0.2985

 Excited state  91: excitation energy (eV) =     541.3004
 Total energy for state  91:                  -515.43850321 au
    Multiplicity: Singlet
    Trans. Mom.: -0.0013 X  -0.0055 Y   0.0031 Z
    Strength   :     0.0005490184
    D(    3) --> V(   90) amplitude =  0.2984
    D(    3) --> V(   91) amplitude =  0.9408

 Excited state  92: excitation energy (eV) =     541.5344
 Total energy for state  92:                  -515.42990256 au
    Multiplicity: Singlet
    Trans. Mom.: -0.0015 X  -0.0070 Y   0.0050 Z
    Strength   :     0.0010211653
    D(    3) --> V(   92) amplitude =  0.9729

 Excited state  93: excitation energy (eV) =     541.9689
 Total energy for state  93:                  -515.41393680 au
    Multiplicity: Singlet
    Trans. Mom.: -0.0087 X  -0.0107 Y  -0.0039 Z
    Strength   :     0.0027333545
    D(    3) --> V(   93) amplitude = -0.4222
    D(    3) --> V(   94) amplitude =  0.7711
    D(    3) --> V(   96) amplitude =  0.3668

 Excited state  94: excitation energy (eV) =     542.0534
 Total energy for state  94:                  -515.41083073 au
    Multiplicity: Singlet
    Trans. Mom.: -0.0006 X  -0.0000 Y  -0.0076 Z
    Strength   :     0.0007760865
    D(    3) --> V(   93) amplitude =  0.8835
    D(    3) --> V(   94) amplitude =  0.4068

 Excited state  95: excitation energy (eV) =     542.2798
 Total energy for state  95:                  -515.40250894 au
    Multiplicity: Singlet
    Trans. Mom.:  0.0005 X  -0.0083 Y  -0.0037 Z
    Strength   :     0.0010954357
    D(    3) --> V(   94) amplitude = -0.3879
    D(    3) --> V(   95) amplitude =  0.7835
    D(    3) --> V(   96) amplitude =  0.4261

 Excited state  96: excitation energy (eV) =     542.4251
 Total energy for state  96:                  -515.39717002 au
    Multiplicity: Singlet
    Trans. Mom.: -0.0006 X   0.0019 Y  -0.0100 Z
    Strength   :     0.0013793960
    D(    3) --> V(   94) amplitude = -0.2421
    D(    3) --> V(   95) amplitude = -0.5522
    D(    3) --> V(   96) amplitude =  0.7615

 Excited state  97: excitation energy (eV) =     542.7435
 Total energy for state  97:                  -515.38546851 au
    Multiplicity: Singlet
    Trans. Mom.: -0.0032 X   0.0008 Y   0.0009 Z
    Strength   :     0.0001534706
    D(    3) --> V(   97) amplitude =  0.9275
    D(    3) --> V(   98) amplitude = -0.2265

 Excited state  98: excitation energy (eV) =     542.8325
 Total energy for state  98:                  -515.38220066 au
    Multiplicity: Singlet
    Trans. Mom.:  0.0039 X   0.0057 Y  -0.0066 Z
    Strength   :     0.0012222569
    D(    3) --> V(   97) amplitude =  0.2610
    D(    3) --> V(   98) amplitude =  0.9156

 Excited state  99: excitation energy (eV) =     543.2565
 Total energy for state  99:                  -515.36661865 au
    Multiplicity: Singlet
    Trans. Mom.:  0.0060 X   0.0121 Y  -0.0045 Z
    Strength   :     0.0027092163
    D(    3) --> V(   99) amplitude =  0.5956
    D(    3) --> V(  100) amplitude =  0.5634
    D(    3) --> V(  101) amplitude = -0.4559
    D(    3) --> V(  102) amplitude = -0.2361

 Excited state 100: excitation energy (eV) =     543.3819
 Total energy for state 100:                  -515.36201010 au
    Multiplicity: Singlet
    Trans. Mom.: -0.0030 X   0.0009 Y   0.0017 Z
    Strength   :     0.0001683798
    D(    3) --> V(   99) amplitude =  0.7061
    D(    3) --> V(  101) amplitude =  0.5823
    D(    3) --> V(  102) amplitude =  0.2539

 Excited state 101: excitation energy (eV) =     543.4343
 Total energy for state 101:                  -515.36008254 au
    Multiplicity: Singlet
    Trans. Mom.:  0.0101 X  -0.0009 Y   0.0058 Z
    Strength   :     0.0018183723
    D(    3) --> V(   99) amplitude = -0.3319
    D(    3) --> V(  100) amplitude =  0.7854
    D(    3) --> V(  101) amplitude =  0.4245
    D(    3) --> V(  102) amplitude =  0.2664

 Excited state 102: excitation energy (eV) =     543.6240
 Total energy for state 102:                  -515.35311309 au
    Multiplicity: Singlet
    Trans. Mom.: -0.0012 X  -0.0073 Y  -0.0028 Z
    Strength   :     0.0008216256
    D(    3) --> V(  101) amplitude = -0.4406
    D(    3) --> V(  102) amplitude =  0.8769

 Excited state 103: excitation energy (eV) =     544.0673
 Total energy for state 103:                  -515.33682077 au
    Multiplicity: Singlet
    Trans. Mom.:  0.0076 X  -0.0006 Y   0.0109 Z
    Strength   :     0.0023525471
    D(    3) --> V(  103) amplitude =  0.9864

 Excited state 104: excitation energy (eV) =     544.4595
 Total energy for state 104:                  -515.32240758 au
    Multiplicity: Singlet
    Trans. Mom.:  0.0021 X  -0.0014 Y  -0.0038 Z
    Strength   :     0.0002760582
    D(    3) --> V(  104) amplitude =  0.9753

 Excited state 105: excitation energy (eV) =     544.9341
 Total energy for state 105:                  -515.30496622 au
    Multiplicity: Singlet
    Trans. Mom.:  0.0025 X   0.0012 Y  -0.0006 Z
    Strength   :     0.0001060338
    D(    3) --> V(  105) amplitude =  0.9722

 Excited state 106: excitation energy (eV) =     545.2826
 Total energy for state 106:                  -515.29215952 au
    Multiplicity: Singlet
    Trans. Mom.:  0.0013 X   0.0074 Y  -0.0003 Z
    Strength   :     0.0007553787
    D(    3) --> V(  106) amplitude =  0.9722

 Excited state 107: excitation energy (eV) =     545.5376
 Total energy for state 107:                  -515.28278838 au
    Multiplicity: Singlet
    Trans. Mom.: -0.0093 X  -0.0098 Y  -0.0034 Z
    Strength   :     0.0025956364
    D(    3) --> V(  107) amplitude =  0.9492

 Excited state 108: excitation energy (eV) =     546.0757
 Total energy for state 108:                  -515.26301305 au
    Multiplicity: Singlet
    Trans. Mom.:  0.0043 X  -0.0034 Y   0.0108 Z
    Strength   :     0.0019721281
    D(    3) --> V(  108) amplitude =  0.9433

 Excited state 109: excitation energy (eV) =     546.2456
 Total energy for state 109:                  -515.25676922 au
    Multiplicity: Singlet
    Trans. Mom.:  0.0082 X   0.0045 Y  -0.0024 Z
    Strength   :     0.0012406020
    D(    3) --> V(  109) amplitude =  0.9737

 Excited state 110: excitation energy (eV) =     546.5837
 Total energy for state 110:                  -515.24434512 au
    Multiplicity: Singlet
    Trans. Mom.:  0.0137 X  -0.0047 Y   0.0124 Z
    Strength   :     0.0048456024
    D(    3) --> V(  108) amplitude = -0.2128
    D(    3) --> V(  110) amplitude =  0.8095
    D(    3) --> V(  112) amplitude = -0.4809

 Excited state 111: excitation energy (eV) =     546.7998
 Total energy for state 111:                  -515.23640273 au
    Multiplicity: Singlet
    Trans. Mom.: -0.0037 X   0.0087 Y   0.0049 Z
    Strength   :     0.0015232771
    D(    3) --> V(  111) amplitude =  0.8564
    D(    3) --> V(  112) amplitude =  0.3832

 Excited state 112: excitation energy (eV) =     546.8314
 Total energy for state 112:                  -515.23524068 au
    Multiplicity: Singlet
    Trans. Mom.: -0.0049 X   0.0018 Y  -0.0036 Z
    Strength   :     0.0005381715
    D(    3) --> V(  110) amplitude =  0.5390
    D(    3) --> V(  111) amplitude = -0.3358
    D(    3) --> V(  112) amplitude =  0.7575

 Excited state 113: excitation energy (eV) =     547.3128
 Total energy for state 113:                  -515.21755089 au
    Multiplicity: Singlet
    Trans. Mom.: -0.0057 X   0.0064 Y  -0.0085 Z
    Strength   :     0.0019586018
    D(    3) --> V(  111) amplitude =  0.2324
    D(    3) --> V(  113) amplitude =  0.9136

 Excited state 114: excitation energy (eV) =     547.5145
 Total energy for state 114:                  -515.21013703 au
    Multiplicity: Singlet
    Trans. Mom.:  0.0031 X   0.0059 Y   0.0035 Z
    Strength   :     0.0007719995
    D(    3) --> V(  114) amplitude =  0.9392

 Excited state 115: excitation energy (eV) =     547.7594
 Total energy for state 115:                  -515.20113863 au
    Multiplicity: Singlet
    Trans. Mom.: -0.0023 X   0.0059 Y   0.0025 Z
    Strength   :     0.0006265101
    D(    3) --> V(  115) amplitude =  0.9073

 Excited state 116: excitation energy (eV) =     547.9174
 Total energy for state 116:                  -515.19533391 au
    Multiplicity: Singlet
    Trans. Mom.: -0.0047 X   0.0005 Y  -0.0023 Z
    Strength   :     0.0003720776
    D(    3) --> V(  116) amplitude =  0.9716

 Excited state 117: excitation energy (eV) =     548.1878
 Total energy for state 117:                  -515.18539354 au
    Multiplicity: Singlet
    Trans. Mom.: -0.0023 X  -0.0032 Y  -0.0020 Z
    Strength   :     0.0002624871
    D(    3) --> V(  115) amplitude =  0.2186
    D(    3) --> V(  117) amplitude =  0.9473

 Excited state 118: excitation energy (eV) =     548.4412
 Total energy for state 118:                  -515.17608255 au
    Multiplicity: Singlet
    Trans. Mom.: -0.0016 X  -0.0028 Y   0.0109 Z
    Strength   :     0.0017282704
    D(    3) --> V(  118) amplitude =  0.9610

 Excited state 119: excitation energy (eV) =     548.4946
 Total energy for state 119:                  -515.17411952 au
    Multiplicity: Singlet
    Trans. Mom.:  0.0010 X  -0.0092 Y  -0.0026 Z
    Strength   :     0.0012353710
    D(    3) --> V(  119) amplitude =  0.9148
    D(    3) --> V(  121) amplitude = -0.2427

 Excited state 120: excitation energy (eV) =     548.9686
 Total energy for state 120:                  -515.15670176 au
    Multiplicity: Singlet
    Trans. Mom.:  0.0133 X   0.0002 Y  -0.0008 Z
    Strength   :     0.0023902179
    D(    3) --> V(  119) amplitude =  0.2468
    D(    3) --> V(  120) amplitude =  0.7147
    D(    3) --> V(  121) amplitude =  0.5842

 Excited state 121: excitation energy (eV) =     549.0590
 Total energy for state 121:                  -515.15338075 au
    Multiplicity: Singlet
    Trans. Mom.:  0.0040 X  -0.0055 Y  -0.0105 Z
    Strength   :     0.0021065950
    D(    3) --> V(  120) amplitude = -0.6723
    D(    3) --> V(  121) amplitude =  0.7004

 Excited state 122: excitation energy (eV) =     549.2590
 Total energy for state 122:                  -515.14602891 au
    Multiplicity: Singlet
    Trans. Mom.:  0.0150 X   0.0083 Y  -0.0122 Z
    Strength   :     0.0059753612
    D(    3) --> V(  122) amplitude =  0.5523
    D(    3) --> V(  123) amplitude =  0.6736
    D(    3) --> V(  125) amplitude = -0.3451
    D(    3) --> V(  126) amplitude = -0.2419

 Excited state 123: excitation energy (eV) =     549.5120
 Total energy for state 123:                  -515.13673299 au
    Multiplicity: Singlet
    Trans. Mom.: -0.0017 X  -0.0025 Y   0.0054 Z
    Strength   :     0.0005133251
    D(    3) --> V(  122) amplitude =  0.7823
    D(    3) --> V(  123) amplitude = -0.5982

 Excited state 124: excitation energy (eV) =     549.8165
 Total energy for state 124:                  -515.12554050 au
    Multiplicity: Singlet
    Trans. Mom.: -0.0053 X  -0.0097 Y   0.0071 Z
    Strength   :     0.0023425662
    D(    3) --> V(  122) amplitude =  0.2486
    D(    3) --> V(  123) amplitude =  0.3074
    D(    3) --> V(  124) amplitude =  0.4107
    D(    3) --> V(  125) amplitude =  0.7754

 Excited state 125: excitation energy (eV) =     549.8785
 Total energy for state 125:                  -515.12326228 au
    Multiplicity: Singlet
    Trans. Mom.:  0.0064 X   0.0060 Y   0.0051 Z
    Strength   :     0.0013859197
    D(    3) --> V(  124) amplitude =  0.8438
    D(    3) --> V(  125) amplitude = -0.3353
    D(    3) --> V(  126) amplitude = -0.3152

 Excited state 126: excitation energy (eV) =     550.1587
 Total energy for state 126:                  -515.11296599 au
    Multiplicity: Singlet
    Trans. Mom.: -0.0140 X  -0.0052 Y  -0.0021 Z
    Strength   :     0.0030493809
    D(    3) --> V(  124) amplitude =  0.2272
    D(    3) --> V(  125) amplitude = -0.3418
    D(    3) --> V(  126) amplitude =  0.8836

 Excited state 127: excitation energy (eV) =     550.7039
 Total energy for state 127:                  -515.09293138 au
    Multiplicity: Singlet
    Trans. Mom.:  0.0013 X   0.0001 Y   0.0131 Z
    Strength   :     0.0023307616
    D(    3) --> V(  127) amplitude =  0.8357
    D(    3) --> V(  128) amplitude =  0.4861

 Excited state 128: excitation energy (eV) =     550.8855
 Total energy for state 128:                  -515.08625547 au
    Multiplicity: Singlet
    Trans. Mom.:  0.0036 X  -0.0096 Y   0.0063 Z
    Strength   :     0.0019517502
    D(    3) --> V(  127) amplitude = -0.5085
    D(    3) --> V(  128) amplitude =  0.8165

 Excited state 129: excitation energy (eV) =     551.2698
 Total energy for state 129:                  -515.07213461 au
    Multiplicity: Singlet
    Trans. Mom.:  0.0054 X  -0.0049 Y  -0.0077 Z
    Strength   :     0.0015265973
    D(    3) --> V(  129) amplitude =  0.6987
    D(    3) --> V(  130) amplitude = -0.6277
    D(    3) --> V(  132) amplitude =  0.2305

 Excited state 130: excitation energy (eV) =     551.3562
 Total energy for state 130:                  -515.06896032 au
    Multiplicity: Singlet
    Trans. Mom.:  0.0057 X   0.0050 Y  -0.0003 Z
    Strength   :     0.0007721607
    D(    3) --> V(  128) amplitude =  0.2254
    D(    3) --> V(  129) amplitude =  0.6441
    D(    3) --> V(  130) amplitude =  0.6955

 Excited state 131: excitation energy (eV) =     551.7205
 Total energy for state 131:                  -515.05556943 au
    Multiplicity: Singlet
    Trans. Mom.:  0.0072 X  -0.0016 Y  -0.0030 Z
    Strength   :     0.0008533841
    D(    3) --> V(  132) amplitude =  0.9457

 Excited state 132: excitation energy (eV) =     551.7761
 Total energy for state 132:                  -515.05352596 au
    Multiplicity: Singlet
    Trans. Mom.:  0.0002 X   0.0004 Y   0.0010 Z
    Strength   :     0.0000155582
    D(    3) --> V(  131) amplitude =  0.9848

 Excited state 133: excitation energy (eV) =     552.1113
 Total energy for state 133:                  -515.04120823 au
    Multiplicity: Singlet
    Trans. Mom.: -0.0018 X  -0.0048 Y  -0.0059 Z
    Strength   :     0.0008312343
    D(    3) --> V(  133) amplitude =  0.9640

 Excited state 134: excitation energy (eV) =     552.4093
 Total energy for state 134:                  -515.03025935 au
    Multiplicity: Singlet
    Trans. Mom.:  0.0090 X   0.0030 Y  -0.0001 Z
    Strength   :     0.0012100703
    D(    3) --> V(  134) amplitude =  0.8149
    D(    3) --> V(  135) amplitude =  0.4802
    D(    3) --> V(  136) amplitude = -0.2269

 Excited state 135: excitation energy (eV) =     552.4321
 Total energy for state 135:                  -515.02942143 au
    Multiplicity: Singlet
    Trans. Mom.:  0.0002 X   0.0018 Y   0.0047 Z
    Strength   :     0.0003438475
    D(    3) --> V(  134) amplitude = -0.5054
    D(    3) --> V(  135) amplitude =  0.8418

 Excited state 136: excitation energy (eV) =     552.7026
 Total energy for state 136:                  -515.01947943 au
    Multiplicity: Singlet
    Trans. Mom.: -0.0107 X  -0.0011 Y  -0.0011 Z
    Strength   :     0.0015956206
    D(    3) --> V(  136) amplitude =  0.9273

 Excited state 137: excitation energy (eV) =     553.3819
 Total energy for state 137:                  -514.99451492 au
    Multiplicity: Singlet
    Trans. Mom.: -0.0066 X   0.0014 Y  -0.0106 Z
    Strength   :     0.0021482833
    D(    3) --> V(  138) amplitude =  0.9493

 Excited state 138: excitation energy (eV) =     553.5995
 Total energy for state 138:                  -514.98652069 au
    Multiplicity: Singlet
    Trans. Mom.: -0.0011 X   0.0034 Y   0.0077 Z
    Strength   :     0.0009835108
    D(    3) --> V(  137) amplitude =  0.9614

 Excited state 139: excitation energy (eV) =     554.0014
 Total energy for state 139:                  -514.97174851 au
    Multiplicity: Singlet
    Trans. Mom.:  0.0126 X   0.0005 Y  -0.0050 Z
    Strength   :     0.0025031051
    D(    3) --> V(  139) amplitude =  0.9717

 Excited state 140: excitation energy (eV) =     554.3258
 Total energy for state 140:                  -514.95982643 au
    Multiplicity: Singlet
    Trans. Mom.:  0.0048 X  -0.0040 Y  -0.0148 Z
    Strength   :     0.0035036150
    D(    3) --> V(  140) amplitude =  0.9279
    D(    3) --> V(  142) amplitude = -0.2571

 Excited state 141: excitation energy (eV) =     554.5912
 Total energy for state 141:                  -514.95007632 au
    Multiplicity: Singlet
    Trans. Mom.: -0.0105 X   0.0007 Y  -0.0002 Z
    Strength   :     0.0015106601
    D(    3) --> V(  140) amplitude =  0.2604
    D(    3) --> V(  141) amplitude =  0.7367
    D(    3) --> V(  142) amplitude =  0.4579
    D(    3) --> V(  143) amplitude =  0.3665

 Excited state 142: excitation energy (eV) =     554.8719
 Total energy for state 142:                  -514.93975741 au
    Multiplicity: Singlet
    Trans. Mom.: -0.0008 X  -0.0012 Y  -0.0022 Z
    Strength   :     0.0000935682
    D(    3) --> V(  141) amplitude = -0.3848
    D(    3) --> V(  142) amplitude =  0.8264
    D(    3) --> V(  143) amplitude = -0.3239

 Excited state 143: excitation energy (eV) =     554.9200
 Total energy for state 143:                  -514.93799011 au
    Multiplicity: Singlet
    Trans. Mom.: -0.0056 X   0.0114 Y   0.0094 Z
    Strength   :     0.0033882481
    D(    3) --> V(  141) amplitude = -0.4995
    D(    3) --> V(  143) amplitude =  0.8082
    D(    3) --> V(  145) amplitude = -0.2247

 Excited state 144: excitation energy (eV) =     555.3701
 Total energy for state 144:                  -514.92145142 au
    Multiplicity: Singlet
    Trans. Mom.:  0.0106 X  -0.0132 Y  -0.0033 Z
    Strength   :     0.0040432242
    D(    3) --> V(  143) amplitude =  0.2376
    D(    3) --> V(  144) amplitude =  0.4010
    D(    3) --> V(  145) amplitude =  0.8558

 Excited state 145: excitation energy (eV) =     555.4678
 Total energy for state 145:                  -514.91786158 au
    Multiplicity: Singlet
    Trans. Mom.:  0.0069 X   0.0040 Y  -0.0065 Z
    Strength   :     0.0014410897
    D(    3) --> V(  144) amplitude =  0.8704
    D(    3) --> V(  145) amplitude = -0.3984

 Excited state 146: excitation energy (eV) =     555.8222
 Total energy for state 146:                  -514.90483504 au
    Multiplicity: Singlet
    Trans. Mom.: -0.0035 X  -0.0084 Y   0.0021 Z
    Strength   :     0.0011851384
    D(    3) --> V(  146) amplitude =  0.9352
    D(    3) --> V(  148) amplitude = -0.2815

 Excited state 147: excitation energy (eV) =     555.9903
 Total energy for state 147:                  -514.89865770 au
    Multiplicity: Singlet
    Trans. Mom.: -0.0034 X   0.0003 Y  -0.0049 Z
    Strength   :     0.0004854967
    D(    3) --> V(  147) amplitude =  0.9458

 Excited state 148: excitation energy (eV) =     556.3367
 Total energy for state 148:                  -514.88592825 au
    Multiplicity: Singlet
    Trans. Mom.:  0.0032 X   0.0040 Y  -0.0016 Z
    Strength   :     0.0003865701
    D(    3) --> V(  146) amplitude =  0.3034
    D(    3) --> V(  148) amplitude =  0.9216

 Excited state 149: excitation energy (eV) =     556.6687
 Total energy for state 149:                  -514.87372977 au
    Multiplicity: Singlet
    Trans. Mom.:  0.0016 X   0.0132 Y   0.0122 Z
    Strength   :     0.0044674754
    D(    3) --> V(  150) amplitude =  0.9339

 Excited state 150: excitation energy (eV) =     556.7914
 Total energy for state 150:                  -514.86922051 au
    Multiplicity: Singlet
    Trans. Mom.:  0.0090 X  -0.0021 Y   0.0014 Z
    Strength   :     0.0011942577
    D(    3) --> V(  149) amplitude =  0.9640

 ---------------------------------------------------
  SETman timing summary (seconds)
  CPU time            924729.78s
  System time              0.03s
  Wall time           925058.56s
================================================================================
                             Excited State Analysis
================================================================================

  Ground State (Reference) :
  -------------------------
    NOs
      Occupation of frontier NOs:
         0.0000   0.0000   2.0000   2.0000
      Number of electrons: 70.000000
      Number of unpaired electrons: n_u =  0.00000, n_u,nl =  0.00000
    
    Mulliken Population Analysis (State DM)
    Atom      Charge (e)
    --------------------
     1 O       -0.717031
     2 O       -0.670890
     3 H        0.360078
     4 H        0.355134
     5 H        0.330941
     6 H        0.363022
     7 O       -0.674321
     8 H        0.381722
     9 H        0.283760
    10 O       -0.665916
    11 H        0.321135
    12 H        0.335953
    13 O       -0.655733
    14 H        0.368997
    15 H        0.285084
    16 O       -0.661743
    17 H        0.344180
    18 H        0.320024
    19 O       -0.657334
    20 H        0.266079
    21 H        0.386860
    --------------------
    Sum:        0.000000
    
    Multipole moment analysis of the density matrix
      Molecular charge:                      0.000000
      Number of electrons:                   70.000000
        Center of electronic charge [Ang]: [  0.000632,  -0.000813,  -0.003252]
      Total nuclear charge:                  70.000000
        Center of nuclear charge [Ang]:    [  0.006283,   0.002283,  -0.023770]
      Dipole moment [D]:                     7.230708
        Cartesian components [D]:          [  1.900010,   1.040761,  -6.898545]
      RMS size of the density [Ang]:         3.025437
        Cartesian components [Ang]:        [  1.835981,   2.040162,   1.272863]
    

  ----------------------------------------------------------------------------
                  Analysis of Unrelaxed Density Matrices
  ----------------------------------------------------------------------------

  Singlet 1 :
  -------------------------
    NOs
      Occupation of frontier NOs:
         0.0000   1.0000   1.0000   2.0000
      Number of electrons: 70.000000
      Number of unpaired electrons: n_u =  2.00000, n_u,nl =  2.00000
      NO participation ratio (PR_NO):  2.000000
    
    NDOs
      Leading detachment eigenvalues:
        -1.0000  -0.0000
      Leading attachment eigenvalues:
         1.0000   0.0000
      Number of detached / attached electrons: p_D =  1.0000, p_A =  1.0000
      Number of involved orbitals: PR_D =  1.000000, PR_A =  1.000000
    
    Mulliken Population Analysis (State/Difference DM)
    Atom      Charge (e)              h+              e-           Del q
    --------------------------------------------------------------------
     1 O        0.234111        0.990050       -0.038908        0.951142
     2 O       -0.741457       -0.000004       -0.070563       -0.070567
     3 H        0.046671        0.000000       -0.313407       -0.313406
     4 H       -0.114017        0.000001       -0.469152       -0.469152
     5 H        0.270539        0.003899       -0.064302       -0.060403
     6 H        0.533806        0.006042        0.164742        0.170784
     7 O       -0.669879        0.000001        0.004442        0.004442
     8 H        0.403514       -0.000001        0.021793        0.021792
     9 H        0.237764        0.000001       -0.045997       -0.045996
    10 O       -0.665253       -0.000000        0.000663        0.000663
    11 H        0.304034       -0.000000       -0.017100       -0.017100
    12 H        0.324899        0.000000       -0.011055       -0.011055
    13 O       -0.667637       -0.000001       -0.011903       -0.011904
    14 H        0.432205        0.000011        0.063197        0.063208
    15 H        0.119355       -0.000000       -0.165729       -0.165729
    16 O       -0.659827       -0.000000        0.001916        0.001915
    17 H        0.324341        0.000000       -0.019839       -0.019839
    18 H        0.306864        0.000000       -0.013161       -0.013161
    19 O       -0.657757        0.000000       -0.000423       -0.000423
    20 H        0.224769       -0.000000       -0.041309       -0.041309
    21 H        0.412956        0.000001        0.026096        0.026096
    --------------------------------------------------------------------
    Sum:        0.000000        1.000000       -1.000000        0.000000
    
    Multipole moment analysis of the density matrix
      Molecular charge:                      0.000000
      Number of electrons:                   70.000000
        Center of electronic charge [Ang]: [  0.001975,   0.016370,  -0.032069]
      Total nuclear charge:                  70.000000
        Center of nuclear charge [Ang]:    [  0.006283,   0.002283,  -0.023770]
      Dipole moment [D]:                     5.684831
        Cartesian components [D]:          [  1.448469,  -4.736428,   2.790250]
      RMS size of the density [Ang]:         3.051313
        Cartesian components [Ang]:        [  1.845570,   2.050850,   1.303227]
    
    Exciton analysis of the difference density matrix
      <r_h> [Ang]:                  [ -0.225548,  -0.184092,   0.174266]
      <r_e> [Ang]:                  [ -0.131540,   1.018686,  -1.842886]
      |<r_e - r_h>| [Ang]:            2.350408
      Hole size [Ang]:                0.122786
        Cartesian components [Ang]: [  0.070886,   0.070892,   0.070894]
      Electron size [Ang]:            2.603106
        Cartesian components [Ang]: [  1.584261,   1.442407,   1.478425]

  Singlet 2 :
  -------------------------
    NOs
      Occupation of frontier NOs:
         0.0000   1.0000   1.0000   2.0000
      Number of electrons: 70.000000
      Number of unpaired electrons: n_u =  2.00000, n_u,nl =  2.00000
      NO participation ratio (PR_NO):  2.000000
    
    NDOs
      Leading detachment eigenvalues:
        -1.0000  -0.0000
      Leading attachment eigenvalues:
         1.0000   0.0000
      Number of detached / attached electrons: p_D =  1.0000, p_A =  1.0000
      Number of involved orbitals: PR_D =  1.000000, PR_A =  1.000000
    
    Mulliken Population Analysis (State/Difference DM)
    Atom      Charge (e)              h+              e-           Del q
    --------------------------------------------------------------------
     1 O        0.382020        0.990050        0.109000        1.099051
     2 O       -0.648343       -0.000004        0.022551        0.022547
     3 H        0.059749        0.000000       -0.300329       -0.300329
     4 H        0.339949        0.000001       -0.015186       -0.015185
     5 H        0.009706        0.003899       -0.325134       -0.321235
     6 H        0.312939        0.006042       -0.056124       -0.050082
     7 O       -0.633166        0.000001        0.041155        0.041155
     8 H        0.362823       -0.000001       -0.018898       -0.018899
     9 H        0.181548        0.000001       -0.102213       -0.102212
    10 O       -0.692089       -0.000000       -0.026173       -0.026174
    11 H        0.229981       -0.000000       -0.091154       -0.091154
    12 H        0.313598        0.000000       -0.022355       -0.022355
    13 O       -0.603358       -0.000001        0.052376        0.052375
    14 H        0.479589        0.000011        0.110581        0.110592
    15 H        0.030372       -0.000000       -0.254711       -0.254711
    16 O       -0.664650       -0.000000       -0.002908       -0.002908
    17 H        0.343011        0.000000       -0.001169       -0.001169
    18 H        0.212721        0.000000       -0.107303       -0.107303
    19 O       -0.659559        0.000000       -0.002225       -0.002225
    20 H        0.220971       -0.000000       -0.045108       -0.045108
    21 H        0.422189        0.000001        0.035328        0.035329
    --------------------------------------------------------------------
    Sum:        0.000000        1.000000       -1.000000        0.000000
    
    Multipole moment analysis of the density matrix
      Molecular charge:                      0.000000
      Number of electrons:                   70.000000
        Center of electronic charge [Ang]: [  0.007099,  -0.000855,  -0.014765]
      Total nuclear charge:                  70.000000
        Center of nuclear charge [Ang]:    [  0.006283,   0.002283,  -0.023770]
      Dipole moment [D]:                     3.218022
        Cartesian components [D]:          [ -0.274055,   1.054911,  -3.027825]
      RMS size of the density [Ang]:         3.055306
        Cartesian components [Ang]:        [  1.851889,   2.053253,   1.299830]
    
    Exciton analysis of the difference density matrix
      <r_h> [Ang]:                  [ -0.225548,  -0.184092,   0.174266]
      <r_e> [Ang]:                  [  0.227080,  -0.187038,  -0.631595]
      |<r_e - r_h>| [Ang]:            0.924280
      Hole size [Ang]:                0.122786
        Cartesian components [Ang]: [  0.070886,   0.070892,   0.070894]
      Electron size [Ang]:            3.518060
        Cartesian components [Ang]: [  2.028380,   1.937805,   2.123048]

  Singlet 3 :
  -------------------------
    NOs
      Occupation of frontier NOs:
         0.0000   1.0000   1.0000   2.0000
      Number of electrons: 70.000000
      Number of unpaired electrons: n_u =  2.00000, n_u,nl =  2.00000
      NO participation ratio (PR_NO):  2.000000
    
    NDOs
      Leading detachment eigenvalues:
        -1.0000  -0.0000
      Leading attachment eigenvalues:
         1.0000   0.0000
      Number of detached / attached electrons: p_D =  1.0000, p_A =  1.0000
      Number of involved orbitals: PR_D =  1.000000, PR_A =  1.000000
    
    Mulliken Population Analysis (State/Difference DM)
    Atom      Charge (e)              h+              e-           Del q
    --------------------------------------------------------------------
     1 O        0.292151        0.990050        0.019131        1.009182
     2 O       -0.639375       -0.000004        0.031519        0.031515
     3 H        0.207994        0.000000       -0.152084       -0.152084
     4 H        0.201811        0.000001       -0.153324       -0.153323
     5 H        0.085942        0.003899       -0.248898       -0.244999
     6 H        0.388514        0.006042        0.019450        0.025492
     7 O       -0.619742        0.000001        0.054579        0.054579
     8 H        0.479763       -0.000001        0.098043        0.098041
     9 H       -0.065700        0.000001       -0.349461       -0.349460
    10 O       -0.672745       -0.000000       -0.006829       -0.006829
    11 H        0.316402       -0.000000       -0.004733       -0.004733
    12 H        0.337634        0.000000        0.001680        0.001681
    13 O       -0.633697       -0.000001        0.022037        0.022036
    14 H        0.433385        0.000011        0.064377        0.064389
    15 H       -0.068980       -0.000000       -0.354063       -0.354064
    16 O       -0.662982       -0.000000       -0.001239       -0.001239
    17 H        0.344236        0.000000        0.000056        0.000056
    18 H        0.314748        0.000000       -0.005276       -0.005276
    19 O       -0.652844        0.000000        0.004489        0.004489
    20 H        0.256312       -0.000000       -0.009767       -0.009767
    21 H        0.357173        0.000001       -0.029688       -0.029687
    --------------------------------------------------------------------
    Sum:        0.000000        1.000000       -1.000000        0.000000
    
    Multipole moment analysis of the density matrix
      Molecular charge:                      -0.000000
      Number of electrons:                   70.000000
        Center of electronic charge [Ang]: [  0.003363,   0.000044,  -0.020358]
      Total nuclear charge:                  70.000000
        Center of nuclear charge [Ang]:    [  0.006283,   0.002283,  -0.023770]
      Dipole moment [D]:                     1.687255
        Cartesian components [D]:          [  0.981930,   0.752645,  -1.147244]
      RMS size of the density [Ang]:         3.051794
        Cartesian components [Ang]:        [  1.851541,   2.054787,   1.289610]
    
    Exciton analysis of the difference density matrix
      <r_h> [Ang]:                  [ -0.225548,  -0.184092,   0.174266]
      <r_e> [Ang]:                  [ -0.034409,  -0.124108,  -1.023122]
      |<r_e - r_h>| [Ang]:            1.214031
      Hole size [Ang]:                0.122786
        Cartesian components [Ang]: [  0.070886,   0.070892,   0.070894]
      Electron size [Ang]:            3.210668
        Cartesian components [Ang]: [  2.017892,   2.053201,   1.421571]

  Singlet 4 :
  -------------------------
    NOs
      Occupation of frontier NOs:
         0.0000   1.0000   1.0000   2.0000
      Number of electrons: 70.000000
[...]
1097  H 11  s       -0.00088   0.00125   0.00357  -0.00090
1098  H 11  s       -0.00211  -0.00332   0.00315   0.00385
1099  H 11  s       -0.01620   0.06039   0.18961  -0.01250
1100  H 11  s        0.10490  -0.05004   0.03889  -0.02319
1101  H 11  s       -0.01198  -0.00415   0.39603  -0.00311
1102  H 11  px       0.00041  -0.00040  -0.00101   0.00019
1103  H 11  py       0.00038  -0.00047  -0.00101   0.00011
1104  H 11  pz       0.00042  -0.00074  -0.00127   0.00027
1105  H 11  px      -0.00070   0.00059   0.00075   0.00044
1106  H 11  py      -0.00158   0.00099   0.00307   0.00054
1107  H 11  pz      -0.00132   0.00166   0.00247   0.00046
1108  H 11  px       0.00437  -0.00041   0.01504  -0.00269
1109  H 11  py       0.00396   0.00732   0.01818   0.00341
1110  H 11  pz       0.00917   0.00573   0.01308  -0.00274
1111  H 11  px      -0.00157  -0.00601   0.02908  -0.01922
1112  H 11  py       0.01554   0.01527   0.02216   0.00279
1113  H 11  pz       0.01608   0.03072   0.02735  -0.02464
1114  H 11  d 1     -0.00007  -0.00002  -0.00017   0.00002
1115  H 11  d 2      0.00002  -0.00040  -0.00031   0.00021
1116  H 11  d 3     -0.00008  -0.00032  -0.00028   0.00016
1117  H 11  d 4      0.00004  -0.00004   0.00010   0.00018
1118  H 11  d 5     -0.00027   0.00018   0.00026   0.00006
1119  H 11  d 1     -0.00031   0.00141   0.00405  -0.00005
1120  H 11  d 2     -0.00097   0.00434   0.00556  -0.00108
1121  H 11  d 3      0.00058   0.00225   0.00160  -0.00119
1122  H 11  d 4     -0.00006   0.00138   0.00226  -0.00118
1123  H 11  d 5      0.00186  -0.00184  -0.00226  -0.00053
1124  H 11  d 1      0.00306   0.00055  -0.00265  -0.00303
1125  H 11  d 2      0.00800   0.00296  -0.00672  -0.00058
1126  H 11  d 3      0.00578   0.00114  -0.01131  -0.00402
1127  H 11  d 4      0.00484   0.00194   0.00219  -0.00926
1128  H 11  d 5     -0.00408  -0.00291   0.00391  -0.00544
1129  H 11  f 1     -0.00009   0.00007   0.00027   0.00002
1130  H 11  f 2     -0.00017   0.00029   0.00076  -0.00007
1131  H 11  f 3     -0.00014   0.00015   0.00039   0.00000
1132  H 11  f 4      0.00005  -0.00007  -0.00023  -0.00005
1133  H 11  f 5     -0.00002   0.00014   0.00037  -0.00003
1134  H 11  f 6      0.00004  -0.00008  -0.00007   0.00008
1135  H 11  f 7      0.00016  -0.00017  -0.00035   0.00001
1136  H 11  f 1      0.00054  -0.00071  -0.00098  -0.00101
1137  H 11  f 2      0.00123   0.00075  -0.00172  -0.00120
1138  H 11  f 3      0.00145   0.00175  -0.00113  -0.00116
1139  H 11  f 4      0.00039   0.00029  -0.00071   0.00029
1140  H 11  f 5      0.00132   0.00077  -0.00206  -0.00177
1141  H 11  f 6      0.00021  -0.00135  -0.00056  -0.00166
1142  H 11  f 7     -0.00025  -0.00064   0.00006  -0.00048
1143  H 11  g 1      0.00003  -0.00008  -0.00008  -0.00007
1144  H 11  g 2      0.00002  -0.00003  -0.00004  -0.00011
1145  H 11  g 3      0.00011   0.00014  -0.00007  -0.00015
1146  H 11  g 4      0.00003   0.00010  -0.00004  -0.00005
1147  H 11  g 5     -0.00004  -0.00005  -0.00003   0.00008
1148  H 11  g 6      0.00008   0.00007  -0.00012  -0.00005
1149  H 11  g 7      0.00004  -0.00010  -0.00008  -0.00008
1150  H 11  g 8      0.00000  -0.00015  -0.00007  -0.00004
1151  H 11  g 9      0.00003  -0.00003  -0.00003   0.00001
1152  H 12  s       -0.00198   0.00135   0.00605  -0.00036
1153  H 12  s       -0.00234   0.00163   0.00009  -0.00509
1154  H 12  s       -0.04742   0.03086   0.25896   0.06399
1155  H 12  s        0.07949  -0.03608   0.14158   0.14066
1156  H 12  s       -0.36778   0.20622   0.49744  -0.02866
1157  H 12  px      -0.00075   0.00041   0.00131  -0.00018
1158  H 12  py       0.00068  -0.00040  -0.00132   0.00007
1159  H 12  pz      -0.00021   0.00023   0.00027  -0.00000
1160  H 12  px       0.00123  -0.00036  -0.00054   0.00104
1161  H 12  py      -0.00159   0.00091   0.00210  -0.00058
1162  H 12  pz      -0.00030  -0.00039   0.00165   0.00024
1163  H 12  px      -0.00508   0.00282  -0.03547  -0.02314
1164  H 12  py       0.01282  -0.00602   0.02522   0.01913
1165  H 12  pz       0.00484  -0.00036  -0.02147  -0.01226
1166  H 12  px      -0.01447   0.00948  -0.05240  -0.04534
1167  H 12  py       0.03442  -0.00165   0.05761   0.04423
1168  H 12  pz       0.00289  -0.00458  -0.00521  -0.03229
1169  H 12  d 1     -0.00008   0.00002   0.00037   0.00007
1170  H 12  d 2     -0.00015  -0.00000   0.00006   0.00010
1171  H 12  d 3      0.00013   0.00009   0.00024   0.00010
1172  H 12  d 4      0.00010  -0.00008  -0.00023  -0.00009
1173  H 12  d 5      0.00017  -0.00012  -0.00017   0.00001
1174  H 12  d 1      0.00036   0.00011  -0.00641  -0.00234
1175  H 12  d 2      0.00084  -0.00000  -0.00213  -0.00153
1176  H 12  d 3     -0.00069  -0.00019  -0.00329  -0.00125
1177  H 12  d 4     -0.00093   0.00054   0.00333   0.00153
1178  H 12  d 5     -0.00117   0.00067   0.00125   0.00035
1179  H 12  d 1     -0.01237   0.00444  -0.00431  -0.00972
1180  H 12  d 2     -0.00123  -0.00184  -0.00596  -0.00838
1181  H 12  d 3     -0.00648   0.00425  -0.00041  -0.00135
1182  H 12  d 4     -0.00288   0.00012   0.00504   0.01010
1183  H 12  d 5     -0.00528  -0.00038   0.00011   0.00227
1184  H 12  f 1     -0.00012   0.00006   0.00067   0.00019
1185  H 12  f 2     -0.00012  -0.00000   0.00055   0.00014
1186  H 12  f 3      0.00011  -0.00008  -0.00036  -0.00011
1187  H 12  f 4     -0.00007   0.00004   0.00052   0.00009
1188  H 12  f 5     -0.00002   0.00000   0.00022   0.00011
1189  H 12  f 6      0.00009  -0.00011  -0.00027   0.00001
1190  H 12  f 7     -0.00012   0.00001   0.00040   0.00010
1191  H 12  f 1      0.00086  -0.00038  -0.00030   0.00098
1192  H 12  f 2     -0.00022   0.00019   0.00047   0.00209
1193  H 12  f 3     -0.00179   0.00103   0.00099   0.00060
1194  H 12  f 4     -0.00019  -0.00016  -0.00015   0.00150
1195  H 12  f 5      0.00125  -0.00052  -0.00026  -0.00052
1196  H 12  f 6      0.00051   0.00038   0.00088  -0.00042
1197  H 12  f 7      0.00255  -0.00080  -0.00012   0.00037
1198  H 12  g 1      0.00007  -0.00002  -0.00001  -0.00005
1199  H 12  g 2      0.00010  -0.00004  -0.00014  -0.00014
1200  H 12  g 3      0.00015  -0.00005  -0.00003  -0.00007
1201  H 12  g 4      0.00001  -0.00003   0.00009   0.00008
1202  H 12  g 5      0.00010  -0.00002   0.00001  -0.00007
1203  H 12  g 6      0.00005   0.00001  -0.00010  -0.00011
1204  H 12  g 7     -0.00001  -0.00001  -0.00001   0.00001
1205  H 12  g 8     -0.00004   0.00000  -0.00011  -0.00008
1206  H 12  g 9     -0.00013   0.00004  -0.00013  -0.00007
1207  O 7   s        0.00073  -0.00015   0.00178   0.00166
1208  O 7   s       -0.01881  -0.00699  -0.05626  -0.03535
1209  O 7   s        0.00010  -0.00161  -0.00177   0.00042
1210  O 7   s       -0.02894   0.00063  -0.04971  -0.03735
1211  O 7   s        0.01712   0.02555  -0.07360  -0.07657
1212  O 7   s       -0.01031  -0.17672  -0.66109  -0.28095
1213  O 7   px      -0.00207   0.00140  -0.00234   0.00326
1214  O 7   py      -0.00066   0.00341  -0.01207  -0.01465
1215  O 7   pz       0.01207  -0.00075   0.01672   0.02037
1216  O 7   px      -0.00440   0.00138  -0.00549   0.00580
1217  O 7   py       0.00044   0.00712  -0.01702  -0.02321
1218  O 7   pz       0.02024  -0.00172   0.02322   0.03084
1219  O 7   px       0.00277   0.01444   0.01166   0.00626
1220  O 7   py      -0.00786   0.00160  -0.04451  -0.03862
1221  O 7   pz       0.02591  -0.00658   0.04781   0.05853
1222  O 7   px       0.04629  -0.01909  -0.08817  -0.02668
1223  O 7   py      -0.01112  -0.01288  -0.06837  -0.01809
1224  O 7   pz       0.01905   0.05750   0.17325   0.10516
1225  O 7   px       0.07234  -0.04835   0.09802   0.18441
1226  O 7   py      -0.08745   0.03797  -0.14686  -0.20204
1227  O 7   pz       0.04075  -0.01159   0.13692   0.11749
1228  O 7   d 1      0.00009   0.00012   0.00028   0.00021
1229  O 7   d 2     -0.00001   0.00003   0.00005   0.00002
1230  O 7   d 3     -0.00001  -0.00004   0.00004  -0.00003
1231  O 7   d 4     -0.00003   0.00013   0.00033   0.00015
1232  O 7   d 5     -0.00000  -0.00007  -0.00021  -0.00011
1233  O 7   d 1     -0.00053  -0.00066  -0.00233  -0.00155
1234  O 7   d 2     -0.00013  -0.00057  -0.00159  -0.00054
1235  O 7   d 3     -0.00009   0.00039  -0.00005   0.00003
1236  O 7   d 4      0.00061  -0.00045  -0.00049  -0.00024
1237  O 7   d 5     -0.00027   0.00011   0.00051   0.00033
1238  O 7   d 1     -0.00095   0.00077   0.00664   0.00563
1239  O 7   d 2      0.00321   0.00178   0.01402   0.00754
1240  O 7   d 3     -0.00346  -0.00240  -0.00697  -0.00636
1241  O 7   d 4     -0.00486   0.00139   0.00257   0.00212
1242  O 7   d 5      0.00345  -0.00048   0.00128   0.00070
1243  O 7   d 1     -0.00855   0.00914   0.01227  -0.00465
1244  O 7   d 2      0.02178   0.00012   0.04922   0.03861
1245  O 7   d 3     -0.01660  -0.00094  -0.03462  -0.03913
1246  O 7   d 4     -0.02139   0.02175   0.01646  -0.01209
1247  O 7   d 5      0.02161  -0.01543  -0.00357   0.02520
1248  O 7   f 1     -0.00002   0.00000  -0.00021  -0.00019
1249  O 7   f 2     -0.00009   0.00008  -0.00011  -0.00020
1250  O 7   f 3      0.00005  -0.00002   0.00020   0.00018
1251  O 7   f 4     -0.00010   0.00001  -0.00009  -0.00015
1252  O 7   f 5     -0.00008  -0.00004  -0.00025  -0.00016
1253  O 7   f 6      0.00001   0.00004   0.00020   0.00007
1254  O 7   f 7     -0.00011  -0.00000  -0.00026  -0.00022
1255  O 7   f 1     -0.00014  -0.00027   0.00100   0.00101
1256  O 7   f 2      0.00043  -0.00039   0.00026   0.00059
1257  O 7   f 3     -0.00052   0.00027  -0.00198  -0.00186
1258  O 7   f 4      0.00071   0.00001   0.00061   0.00088
1259  O 7   f 5      0.00034   0.00010   0.00120   0.00083
1260  O 7   f 6     -0.00025  -0.00018  -0.00166  -0.00081
1261  O 7   f 7      0.00054  -0.00003   0.00104   0.00093
1262  O 7   f 1     -0.00022   0.00366   0.01324   0.00501
1263  O 7   f 2      0.00308  -0.00855  -0.00518   0.00534
1264  O 7   f 3     -0.00762  -0.00196  -0.02414  -0.02004
1265  O 7   f 4      0.00632  -0.00691   0.00212   0.01279
1266  O 7   f 5      0.00238  -0.00026   0.00537   0.00311
1267  O 7   f 6     -0.00649   0.00445  -0.00586  -0.01115
1268  O 7   f 7      0.00528  -0.00547  -0.00229   0.00889
1269  O 7   g 1     -0.00000  -0.00009  -0.00017  -0.00000
1270  O 7   g 2     -0.00002   0.00012   0.00008  -0.00008
1271  O 7   g 3      0.00009  -0.00004   0.00024   0.00024
1272  O 7   g 4     -0.00005  -0.00006  -0.00012  -0.00009
1273  O 7   g 5      0.00008  -0.00006   0.00015   0.00021
1274  O 7   g 6     -0.00002   0.00011   0.00004  -0.00011
1275  O 7   g 7     -0.00002   0.00002  -0.00000  -0.00002
1276  O 7   g 8      0.00009  -0.00008   0.00005   0.00021
1277  O 7   g 9     -0.00009  -0.00001  -0.00008  -0.00011
1278  O 7   g 1     -0.00016   0.00066   0.00176   0.00031
1279  O 7   g 2      0.00032  -0.00128  -0.00225  -0.00028
1280  O 7   g 3     -0.00078   0.00104  -0.00148  -0.00218
1281  O 7   g 4      0.00123   0.00059   0.00376   0.00339
1282  O 7   g 5     -0.00096   0.00096  -0.00094  -0.00205
1283  O 7   g 6      0.00012  -0.00117  -0.00127   0.00028
1284  O 7   g 7      0.00077  -0.00002   0.00303   0.00238
1285  O 7   g 8     -0.00091   0.00094  -0.00008  -0.00199
1286  O 7   g 9      0.00107  -0.00008   0.00095   0.00130
1287  O 7   h 1     -0.00011   0.00009   0.00004  -0.00016
1288  O 7   h 2      0.00004  -0.00010  -0.00010   0.00004
1289  O 7   h 3     -0.00005   0.00009   0.00012   0.00005
1290  O 7   h 4     -0.00001  -0.00002   0.00006   0.00003
1291  O 7   h 5     -0.00010  -0.00003  -0.00020  -0.00030
1292  O 7   h 6     -0.00002  -0.00002  -0.00008  -0.00008
1293  O 7   h 7     -0.00005   0.00010  -0.00007  -0.00010
1294  O 7   h 8     -0.00011  -0.00010  -0.00055  -0.00036
1295  O 7   h 9     -0.00002  -0.00010  -0.00011   0.00007
1296  O 7   h10     -0.00006  -0.00004   0.00005   0.00002
1297  O 7   h11      0.00014   0.00005   0.00029   0.00016
1298  H 13  s        0.00096   0.00083   0.00505   0.00310
1299  H 13  s        0.00031   0.00364   0.00348  -0.00105
1300  H 13  s        0.06310   0.04790   0.28564   0.19292
1301  H 13  s       -0.00951  -0.02016  -0.00144  -0.04420
1302  H 13  s        0.34429  -0.09110   0.95260   1.08345
1303  H 13  px      -0.00015   0.00006  -0.00030  -0.00031
1304  H 13  py       0.00061   0.00003   0.00180   0.00165
1305  H 13  pz      -0.00090  -0.00018  -0.00262  -0.00223
1306  H 13  px       0.00018  -0.00011  -0.00086  -0.00048
1307  H 13  py      -0.00086  -0.00056  -0.00410  -0.00290
1308  H 13  pz       0.00205   0.00162   0.00707   0.00486
1309  H 13  px       0.00353  -0.00027   0.02415   0.02406
1310  H 13  py      -0.00297  -0.00586  -0.02276  -0.01494
1311  H 13  pz      -0.00705   0.00822   0.01191  -0.00880
1312  H 13  px      -0.00090  -0.01100   0.00229   0.01003
1313  H 13  py      -0.00138   0.01421  -0.01513  -0.02022
1314  H 13  pz       0.00120  -0.00245   0.01579  -0.00531
1315  H 13  d 1      0.00007   0.00005   0.00034   0.00029
1316  H 13  d 2      0.00015  -0.00010   0.00029   0.00044
1317  H 13  d 3      0.00015   0.00008   0.00000   0.00014
1318  H 13  d 4     -0.00014   0.00025  -0.00024  -0.00052
1319  H 13  d 5      0.00015  -0.00007   0.00006   0.00018
1320  H 13  d 1     -0.00095  -0.00023  -0.00431  -0.00423
1321  H 13  d 2     -0.00159  -0.00134  -0.00798  -0.00553
1322  H 13  d 3     -0.00100   0.00100   0.00206  -0.00139
1323  H 13  d 4      0.00125  -0.00107   0.00435   0.00539
1324  H 13  d 5     -0.00118  -0.00027  -0.00265  -0.00234
1325  H 13  d 1      0.00063   0.00517  -0.00237  -0.00791
1326  H 13  d 2      0.00479   0.00473   0.01077   0.00748
1327  H 13  d 3     -0.00492   0.00179  -0.01240  -0.01908
1328  H 13  d 4     -0.00043  -0.00365   0.00487   0.00834
1329  H 13  d 5      0.00029   0.00261   0.00268  -0.00225
1330  H 13  f 1      0.00001  -0.00004  -0.00009  -0.00009
1331  H 13  f 2     -0.00018  -0.00009  -0.00071  -0.00058
1332  H 13  f 3     -0.00014  -0.00019  -0.00084  -0.00047
1333  H 13  f 4     -0.00013   0.00001  -0.00014  -0.00023
1334  H 13  f 5     -0.00003   0.00008   0.00025   0.00007
1335  H 13  f 6     -0.00010  -0.00027  -0.00068  -0.00028
1336  H 13  f 7     -0.00014  -0.00005  -0.00042  -0.00037
1337  H 13  f 1      0.00040   0.00020   0.00058   0.00075
1338  H 13  f 2      0.00008   0.00170  -0.00075  -0.00261
1339  H 13  f 3      0.00109   0.00030   0.00249   0.00315
1340  H 13  f 4     -0.00102   0.00082  -0.00155  -0.00394
1341  H 13  f 5      0.00049  -0.00090   0.00130   0.00220
1342  H 13  f 6     -0.00014   0.00108   0.00150  -0.00008
1343  H 13  f 7      0.00022   0.00099   0.00008  -0.00115
1344  H 13  g 1      0.00002  -0.00004   0.00008   0.00014
1345  H 13  g 2      0.00004   0.00002  -0.00001  -0.00001
1346  H 13  g 3     -0.00002   0.00007  -0.00025  -0.00028
1347  H 13  g 4      0.00007  -0.00002   0.00010   0.00028
1348  H 13  g 5     -0.00009   0.00005  -0.00014  -0.00029
1349  H 13  g 6     -0.00004   0.00004   0.00004  -0.00005
1350  H 13  g 7      0.00001  -0.00001   0.00003   0.00007
1351  H 13  g 8     -0.00004   0.00014  -0.00015  -0.00031
1352  H 13  g 9      0.00003   0.00004   0.00005   0.00001
1353  H 14  s        0.00104  -0.00042   0.00217   0.00171
1354  H 14  s        0.00533   0.00333   0.01006   0.00401
1355  H 14  s       -0.03435   0.04736   0.12432   0.02343
1356  H 14  s       -0.20190   0.02044  -0.10668  -0.06134
1357  H 14  s       -0.10687   0.31837   0.09016  -0.49682
1358  H 14  px       0.00057   0.00028   0.00095   0.00009
1359  H 14  py      -0.00029  -0.00026  -0.00069  -0.00003
1360  H 14  pz      -0.00022  -0.00011  -0.00037   0.00001
1361  H 14  px      -0.00213  -0.00220  -0.00391   0.00055
1362  H 14  py       0.00138   0.00111   0.00199  -0.00011
1363  H 14  pz       0.00081   0.00173   0.00279  -0.00010
1364  H 14  px       0.02662  -0.00162  -0.00236  -0.01127
1365  H 14  py      -0.02447   0.00654   0.00113  -0.00619
1366  H 14  pz      -0.00182  -0.00895   0.00544   0.01713
1367  H 14  px       0.01453   0.00181  -0.00790   0.00409
1368  H 14  py      -0.03792   0.03040   0.03247  -0.02969
1369  H 14  pz       0.01105  -0.02878   0.00156   0.00206
1370  H 14  d 1     -0.00027   0.00019   0.00011  -0.00026
1371  H 14  d 2     -0.00003  -0.00007  -0.00023  -0.00003
1372  H 14  d 3     -0.00004  -0.00014  -0.00029  -0.00004
1373  H 14  d 4      0.00020  -0.00005   0.00071   0.00034
1374  H 14  d 5     -0.00021  -0.00021  -0.00048  -0.00021
1375  H 14  d 1      0.00307  -0.00230  -0.00253   0.00139
1376  H 14  d 2      0.00023   0.00042   0.00285   0.00137
1377  H 14  d 3      0.00135  -0.00046   0.00055   0.00078
1378  H 14  d 4     -0.00157   0.00030  -0.00677  -0.00464
1379  H 14  d 5      0.00119   0.00113   0.00444   0.00300
1380  H 14  d 1      0.01737   0.00431   0.01807   0.00839
1381  H 14  d 2     -0.00385  -0.01118  -0.01315  -0.00089
1382  H 14  d 3      0.01302  -0.00296   0.01164   0.01090
1383  H 14  d 4      0.00057   0.02079   0.02352  -0.00795
1384  H 14  d 5     -0.00191  -0.01660  -0.02663   0.00598
1385  H 14  f 1     -0.00011   0.00010   0.00038   0.00024
1386  H 14  f 2      0.00000  -0.00009  -0.00043  -0.00030
1387  H 14  f 3      0.00003  -0.00001  -0.00002  -0.00001
1388  H 14  f 4     -0.00001  -0.00007  -0.00029  -0.00032
1389  H 14  f 5      0.00005   0.00012   0.00028   0.00013
1390  H 14  f 6     -0.00007   0.00000  -0.00006   0.00011
1391  H 14  f 7     -0.00007  -0.00000   0.00000  -0.00010
1392  H 14  f 1     -0.00221  -0.00098  -0.00360  -0.00141
1393  H 14  f 2      0.00009   0.00272   0.00158  -0.00101
1394  H 14  f 3      0.00217  -0.00108   0.00180   0.00267
1395  H 14  f 4     -0.00020   0.00223   0.00065  -0.00101
1396  H 14  f 5     -0.00301   0.00067  -0.00358  -0.00313
1397  H 14  f 6      0.00182  -0.00186   0.00181   0.00302
1398  H 14  f 7     -0.00247   0.00191  -0.00080  -0.00338
1399  H 14  g 1      0.00004   0.00014   0.00021  -0.00007
1400  H 14  g 2      0.00004  -0.00024  -0.00006   0.00018
1401  H 14  g 3     -0.00025   0.00014  -0.00022  -0.00031
1402  H 14  g 4      0.00006   0.00009   0.00010   0.00002
1403  H 14  g 5     -0.00018   0.00013  -0.00015  -0.00023
1404  H 14  g 6      0.00004  -0.00017  -0.00000   0.00019
1405  H 14  g 7      0.00004  -0.00002   0.00005  -0.00001
1406  H 14  g 8     -0.00012   0.00002  -0.00005  -0.00011
1407  H 14  g 9      0.00028  -0.00009   0.00018   0.00029

 -----------------------------------------------------------------
                    Cartesian Multipole Moments
 -----------------------------------------------------------------
    Charge (ESU x 10^10)
                -0.0000
    Dipole Moment (Debye)
         X       1.9000      Y       1.0408      Z      -6.8985
       Tot       7.2307
    Quadrupole Moments (Debye-Ang)
        XX     -51.5064     XY       0.4937     YY     -62.8505
        XZ       6.6770     YZ     -15.1438     ZZ     -38.4741
    Octopole Moments (Debye-Ang^2)
       XXX      40.9045    XXY     -25.3586    XYY      17.9201
       YYY      34.4796    XXZ     -16.5467    XYZ      -4.0431
       YYZ     -36.9969    XZZ     -10.7203    YZZ       1.6440
       ZZZ     -42.6306
    Hexadecapole Moments (Debye-Ang^3)
      XXXX   -1069.4395   XXXY     168.3838   XXYY    -287.3123
      XYYY      79.4632   YYYY   -1447.9563   XXXZ     -82.4332
      XXYZ     -68.9401   XYYZ      23.6887   YYYZ    -148.8114
      XXZZ    -196.3683   XYZZ      49.9227   YYZZ    -305.0421
      XZZZ     -39.8591   YZZZ    -130.1048   ZZZZ    -400.9071
 -----------------------------------------------------------------
 Total job time:  929869.12s(wall), 929418.69s(cpu) 
 Mon Jan 20 07:45:28 2025

        *************************************************************
        *                                                           *
        *  Thank you very much for using Q-Chem.  Have a nice day.  *
        *                                                           *
        *************************************************************


