                  Welcome to Q-Chem
     A Quantum Leap Into The Future Of Chemistry


 Q-Chem 6.2 (devel), Q-Chem, Inc., Pleasanton, CA (2024)

 E. Epifanovsky,  A. T. B. Gilbert,  Xintian Feng,  Joonho Lee,  Yuezhi Mao,  
 N. Mardirossian,  P. Pokhilko,  A. White,  M. Wormit,  M. P. Coons,  
 A. L. Dempwolff,  Zhengting Gan,  D. Hait,  P. R. Horn,  L. D. Jacobson,  
 I. Kaliman,  J. Kussmann,  A. W. Lange,  Ka Un Lao,  D. S. Levine,  Jie Liu,  
 S. C. McKenzie,  A. F. Morrison,  K. D. Nanda,  F. Plasser,  D. R. Rehn,  
 M. L. Vidal,  Zhi-Qiang You,  Ying Zhu,  Huseyin Aksu,  B. Alam,  
 B. Albrecht,  A. Aldossary,  E. Alguire,  J. H. Andersen,  
 J. E. Arias-Martinez,  V. Athavale,  D. Barton,  K. Begam,  A. Behn,  
 N. Bellonzi,  Y. A. Bernard,  E. J. Berquist,  H. Burton,  A. Carreras,  
 K. Carter-Fenk,  Mathew Chow,  Romit Chakraborty,  Chandrima Chakravarty,  
 Junhan Chen,  A. D. Chien,  K. D. Closser,  V. Cofer-Shabica,  L. Cunha,  
 S. Dasgupta,  Jia Deng,  Joseph Dickinson,  M. de Wergifosse,  
 M. Diedenhofen,  Hainam Do,  Wenjie Dou,  S. Ehlert,  Po-Tung Fang,  
 S. Fatehi,  Qingguo Feng,  Jonathan Fetherolf,  T. Friedhoff,  
 Thomas Froitzheim,  Sarai Folkestad,  B. Ganoe,  J. Gayvert,  Qinghui Ge,  
 G. Gidofalvi,  M. Gimferrer,  M. Goldey,  Montgomery Gray,  J. Gomes,  
 C. Gonzalez-Espinoza,  S. Gulania,  A. Gunina,  J. A. Gyamfi,  
 M. W. D. Hanson-Heine,  P. H. P. Harbach,  A. W. Hauser,  M. F. Herbst,  
 M. Hernandez Vera,  M. Hodecker,  Z. C. Holden,  S. Houck,  Xunkun Huang,  
 Kerwin Hui,  B. C. Huynh,  K. Ikeda,  M. Ivanov,  Nayanthara K. Jayadev,  
 Hyunjun Ji,  Zuxin Jin,  Hanjie Jiang,  Subrata Jana,  B. Kaduk,  
 S. Kaehler,  R. Kang,  K. Khistyaev,  Jaehoon Kim,  Yongbin Kim,  
 P. Klunzinger,  Z. Koczor-Benda,  Joong Hoon Koh,  D. Kosenkov,  
 Saikiran Kotaru,  L. Koulias,  T. Kowalczyk,  C. M. Krauter,  K. Kue,  
 A. Kunitsa,  T. Kus,  A. Landau,  K. V. Lawler,  D. Lefrancois,  S. Lehtola,  
 Rain Li,  Shaozhi Li,  Tao E. Li,  Yi-Pei Li,  Jiashu Liang,  M. Liebenthal,  
 Hung-Hsuan Lin,  You-Sheng Lin,  Fenglai Liu,  Kuan-Yu Liu,  Xiao Liu,  
 M. Loipersberger,  A. Luenser,  C. Malbon,  Aniket Mandal,  Manisha,  
 A. Manjanath,  P. Manohar,  E. Mansoor,  S. F. Manzer,  Shan-Ping Mao,  
 A. V. Marenich,  T. Markovich,  S. Mason,  F. Matz,  S. A. Maurer,  
 Samuel May,  Alexandra McIsaac,  P. F. McLaughlin,  M. F. S. J. Menger,  
 J.-M. Mewes,  S. A. Mewes,  P. Morgante,  Mohammad Mostafanejad,  
 Madhubani Mukherjee,  J. W. Mullinax,  Quyen Nguyen,  Avik Kumar Ojha,  
 K. J. Oosterbaan,  Eno Paenurk,  Xiaoliang Pan,  G. Paran,  V. Parravicini,  
 Alexander C. Paul,  Suranjan K. Paul,  F. Pavosevic,  Zheng Pei,  S. Prager,  
 E. I. Proynov,  E. Ramos,  B. Rana,  A. E. Rask,  A. Rettig,  R. M. Richard,  
 F. Rob,  E. Rossomme,  T. Scheele,  M. Scheurer,  M. Schneider,  
 P. E. Schneider,  Tim K. Schramm,  N. Sergueev,  S. M. Sharada,  
 Hengyuan Shen,  W. Skomorowski,  D. W. Small,  C. J. Stein,  
 Alistair J. Sterling,  Yingli Su,  Yu-Chuan Su,  E. J. Sundstrom,  
 J. Talbot,  Zhen Tao,  J. Thirman,  Hung-Yi Tsai,  T. Tsuchimochi,  
 N. M. Tubman,  C. Utku,  S. P. Veccham,  O. Vydrov,  Rahel Weiss,  
 J. Wenzel,  Jonathan Wong,  J. Witte,  H. Wu,  Yanze Wu,  A. Yamada,  
 Chou-Hsun Yang,  Kun Yao,  S. Yeganeh,  S. R. Yost,  Qi Yu,  A. Zech,  
 F. Zeller,  Chongxiao Zhao,  Igor Ying Zhang,  Xing Zhang,  Yu Zhang,  
 D. Zuev,  A. Aspuru-Guzik,  A. T. Bell,  N. A. Besley,  K. B. Bravaya,  
 B. R. Brooks,  D. Casanova,  Jeng-Da Chai,  Hsing-Ta Chen,  S. Coriani,  
 C. J. Cramer,  A. E. DePrince, III,  R. A. DiStasio Jr.,  A. Dreuw,  
 B. D. Dunietz,  T. R. Furlani,  W. A. Goddard III,  S. Grimme,  
 S. Hammes-Schiffer,  T. Head-Gordon,  W. J. Hehre,  Chao-Ping Hsu,  
 T.-C. Jagau,  Yousung Jung,  A. Klamt,  Jing Kong,  D. S. Lambrecht,  
 Xiangyuan Li,  WanZhen Liang,  N. J. Mayhall,  C. W. McCurdy,  J. B. Neaton,  
 T. Neudecker,  C. Ochsenfeld,  J. A. Parkhill,  R. Peverati,  
 V. A. Rassolov,  Haisheng Ren,  Yihan Shao,  L. V. Slipchenko,  
 R. P. Steele,  J. E. Subotnik,  A. J. W. Thom,  A. Tkatchenko,  
 D. G. Truhlar,  T. Van Voorhis,  Fan Wang,  T. A. Wesolowski,  K. B. Whaley,  
 H. L. Woodcock III,  P. M. Zimmerman,  S. Faraji,  P. M. W. Gill,  
 M. Head-Gordon,  J. M. Herbert,  A. I. Krylov

 Contributors to earlier versions of Q-Chem not listed above: 
 R. D. Adamson,  B. Austin,  R. Baer,  J. Baker,  G. J. O. Beran,  
 K. Brandhorst,  S. T. Brown,  E. F. C. Byrd,  Arup K. Chakraborty,  
 G. K. L. Chan,  Chun-Min Chang,  Yunqing Chen,  C.-L. Cheng,  
 Siu Hung Chien,  D. M. Chipman,  D. L. Crittenden,  H. Dachsel,  
 R. J. Doerksen,  A. D. Dutoi,  R. G. Edgar,  J. Fosso-Tande,  
 L. Fusti-Molnar,  D. Ghosh,  A. Ghysels,  A. Golubeva-Zadorozhnaya,  
 J. Gonthier,  M. S. Gordon,  S. R. Gwaltney,  G. Hawkins,  J. E. Herr,  
 A. Heyden,  S. Hirata,  E. G. Hohenstein,  G. Kedziora,  F. J. Keil,  
 C. Kelley,  Jihan Kim,  R. A. King,  R. Z. Khaliullin,  P. P. Korambath,  
 W. Kurlancheek,  A. Laurent,  A. M. Lee,  M. S. Lee,  S. V. Levchenko,  
 Ching Yeh Lin,  D. Liotard,  E. Livshits,  R. C. Lochan,  I. Lotan,  
 L. A. Martinez-Martinez,  P. E. Maslen,  N. Nair,  D. P. O'Neill,  
 D. Neuhauser,  E. Neuscamman,  C. M. Oana,  R. Olivares-Amaya,  R. Olson,  
 T. M. Perrine,  B. Peters,  P. A. Pieniazek,  A. Prociuk,  Y. M. Rhee,  
 J. Ritchie,  M. A. Rohrdanz,  E. Rosta,  N. J. Russ,  H. F. Schaefer III,  
 M. W. Schmidt,  N. E. Schultz,  S. Sharma,  N. Shenvi,  C. D. Sherrill,  
 A. C. Simmonett,  A. Sodt,  T. Stein,  D. Stuck,  K. S. Thanthiriwatte,  
 V. Vanovschi,  L. Vogt,  Tao Wang,  A. Warshel,  M. A. Watson,  
 C. F. Williams,  Q. Wu,  X. Xu,  Jun Yang,  W. Zhang,  Yan Zhao

   Please cite Q-Chem as follows:
  "Software for the frontiers of quantum chemistry:
   An overview of developments in the Q-Chem 5 package"
   J. Chem. Phys. 155, 084801 (2021)
   https://doi.org/10.1063/5.0055522 (open access)

 Q-Chem 6.2.2 for Intel X86 EM64T Linux

 Parts of Q-Chem use Armadillo 9.900.5 (Nocturnal Misbehaviour).
 http://arma.sourceforge.net/

 Q-Chem begins on Fri Dec 20 12:41:10 2024  

 Host: compute-0-14.local
0

     Scratch files written to /scratch/keith/A1D0_1//
 Processing $rem in /home/keith/software/qchem/qchem_622/config/preferences:
 Processing $rem in /home/keith/.qchemrc:

 Checking the input file for inconsistencies... 	...done.

--------------------------------------------------------------
User input:
--------------------------------------------------------------
$molecule
read
$end

$rem
method                    b3lyp 
basis                     cc-pv5z 
mem_total                 63000
mem_static                8000
thresh                    12
scf_convergence           8
xc_grid                   000075000302
max_scf_cycles            2000
symmetry                  false
sym_ignore                true
scf_guess                 read
mom_start                 1
cis_n_roots               100
cis_triplets              false
rpa                       false 
trnss                     true
trtype                    2
n_sol                     99
nto_pairs                 2
gui                       2
print_orbitals            true
state_analysis            true
$end

$solute 
3 1234 1235 1236 1237 1238 1239 1240 1241 1242 1243 1244 1245 1246 1247 1248 1249 1250 1251 1252 1253 1254 1255 1256 1257 1258 1259 1260 1261 1262 1263 1264 1265 1266 1267 1268 1269 1270 1271 1272 1273 1274 1275 1276 1277 1278 1279 1280 1281 1282 1283 1284 1285 1286 1287 1288 1289 1290 1291 1292 1293 1294 1295 1296 1297 1298 1299 1300 1301 1302 1303 1304 1305 1306 1307 1308 1309 1310 1311 1312 1313 1314 1315 1316 1317 1318 1319 1320 1321 1322 1323 1324 1325 1326 1327 1328 1329 1330 1331
$end
--------------------------------------------------------------
 ----------------------------------------------------------------
             Standard Nuclear Orientation (Angstroms)
    I     Atom           X                Y                Z
 ----------------------------------------------------------------
    1      O      -0.2254500000    -0.1840200000     0.1743300000
    2      O      -0.9258100000     1.1309800000    -1.8136700000
    3      H      -1.1069800000     0.7609800000    -2.6966700000
    4      H      -0.1281600000     1.6839800000    -1.9466700000
    5      H      -0.6703200000    -0.9699200000     0.4773300000
    6      H      -0.5551400000     0.0809800000    -0.6606700000
    7      O      -0.5189800000    -3.4815200000     0.0183300000
    8      H       0.2597400000    -2.8794200000     0.1103300000
    9      H      -1.1318800000    -3.1145200000    -0.6086700000
   10      O       2.0690400000    -2.3486200000    -0.3206700000
   11      H       2.6683400000    -2.9721200000     0.1053300000
   12      H       2.4352400000    -1.4431200000    -0.2616700000
   13      O       2.4780400000     0.5499800000     0.3663300000
   14      H       1.5362400000     0.5299800000     0.4163300000
   15      H       2.5797400000     1.0999800000    -0.4616700000
   16      O       0.3617400000     2.2379800000     2.4383300000
   17      H      -0.1613600000     1.7399800000     1.8133300000
   18      H       1.0775400000     1.5879800000     2.6973300000
   19      O      -3.2944600000     2.0749800000    -0.6516700000
   20      H      -3.4417600000     2.6279800000    -1.4066700000
   21      H      -2.4743600000     1.5889800000    -0.9316700000
 ----------------------------------------------------------------
 Nuclear Repulsion Energy =         349.41353692 hartrees
 There are       35 alpha and       35 beta electrons
 Requested basis set is cc-pV5Z
 There are 357 shells and 1407 basis functions

 Total QAlloc Memory Limit  63000 MB
 Mega-Array Size      7821 MB
 MEM_STATIC part      8000 MB

 A cutoff of  1.0D-12 yielded  38887 shell pairs
 There are    511623 function pairs (    845599 Cartesian)
 Smallest overlap matrix eigenvalue = 2.13E-05

 Scale SEOQF with 1.000000e-01/1.000000e-01/1.000000e-01

 Standard Electronic Orientation quadrupole field applied
 Nucleus-field energy     =     0.0000000166 hartrees
 Guess MOs from SCF MO coefficient file

 -----------------------------------------------------------------------
  General SCF calculation program by
  Eric Jon Sundstrom, Paul Horn, Yuezhi Mao, Dmitri Zuev, Alec White,
  David Stuck, Shaama M.S., Shane Yost, Joonho Lee, David Small,
  Daniel Levine, Susi Lehtola, Hugh Burton, Evgeny Epifanovsky,
  Bang C. Huynh
 -----------------------------------------------------------------------
 Exchange:     0.2000 Hartree-Fock + 0.0800 Slater + 0.7200 B88
 Correlation:  0.1900 VWN1RPA + 0.8100 LYP
 Using Euler-Maclaurin-Lebedev (75,302) quadrature formula
 A restricted SCF calculation will be
 performed using DIIS
 SCF converges when DIIS error is below 1.0e-08
 ---------------------------------------
  Cycle       Energy         DIIS error
 ---------------------------------------
Maximum Overlap Method Active
 MOM overlap:    35.0 / 35
    1    -535.3309253516      7.86e-10  
    2    -535.3309253516      1.28e-09  Convergence criterion met
Maximum Overlap Method Active
 MOM overlap:    35.00 / 35
 ---------------------------------------
 SCF time:   CPU 31602.34s  wall 15829.00s 
 SCF   energy =  -535.33092535
 Total energy =  -535.33092535
 MAX_CIS_SUBSPACE fits in available memory
 Direct TDDFT/TDA calculation will be performed
 Exchange:     0.2000 Hartree-Fock + 0.0800 Slater + 0.7200 B88
 Correlation:  0.1900 VWN1RPA + 0.8100 LYP
 Using Euler-Maclaurin-Lebedev (75,302) quadrature formula
 Singlet excitation energies requested
 CIS energy converged when residual is below 10e- 6
   
 ***Using a Restricted Set of Single Excitations***
   
 RCIS calculation
   
 Excitations limited to defined orbital subspace
 -------------------------------------------------------------
              Orbitals in Truncated CIS space
 -------------------------------------------------------------
     312341235123612371238123912401241124212431244124512461247
  124812491250125112521253125412551256125712581259126012611262
  126312641265126612671268126912701271127212731274127512761277
  127812791280128112821283128412851286128712881289129012911292
  129312941295129612971298129913001301130213031304130513061307
  130813091310131113121313131413151316131713181319132013211322
  132313241325132613271328132913301331
   
    Number of Occupied Orbitals =    1  out of    35
    Number of Virtual Orbitals  =   98  out of  1372
 -------------------------------------------------------------
 Number of Roots adjusted to:          98
 ---------------------------------------------------
 Iter    Rts Conv    Rts Left    Ttl Dev     Max Dev
 ---------------------------------------------------
   1        98           0      0.011810    0.000433    Roots Converged
 ---------------------------------------------------

 ---------------------------------------------------
         TDDFT/TDA Excitation Energies              
 ---------------------------------------------------

 Excited state   1: excitation energy (eV) =    1016.5221
 Total energy for state   1:                  -497.97442854 au
    Multiplicity: Singlet
    Trans. Mom.:  0.0086 X  -0.0019 Y   0.0154 Z
    Strength   :     0.0078399253
    D(    3) --> V( 1199) amplitude =  0.5792
    D(    3) --> V( 1200) amplitude =  0.7038
    D(    3) --> V( 1201) amplitude =  0.3606

 Excited state   2: excitation energy (eV) =    1018.5230
 Total energy for state   2:                  -497.90089727 au
    Multiplicity: Singlet
    Trans. Mom.: -0.0012 X  -0.0048 Y   0.0014 Z
    Strength   :     0.0006517742
    D(    3) --> V( 1199) amplitude =  0.2283
    D(    3) --> V( 1204) amplitude = -0.3329
    D(    3) --> V( 1205) amplitude =  0.5563
    D(    3) --> V( 1206) amplitude =  0.2972
    D(    3) --> V( 1208) amplitude =  0.5728

 Excited state   3: excitation energy (eV) =    1019.9964
 Total energy for state   3:                  -497.84674795 au
    Multiplicity: Singlet
    Trans. Mom.:  0.0045 X   0.0065 Y  -0.0022 Z
    Strength   :     0.0017014271
    D(    3) --> V( 1199) amplitude = -0.2930
    D(    3) --> V( 1200) amplitude =  0.2765
    D(    3) --> V( 1203) amplitude = -0.3729
    D(    3) --> V( 1204) amplitude = -0.2507
    D(    3) --> V( 1207) amplitude =  0.5087
    D(    3) --> V( 1210) amplitude = -0.3882
    D(    3) --> V( 1212) amplitude =  0.2384

 Excited state   4: excitation energy (eV) =    1020.9200
 Total energy for state   4:                  -497.81280866 au
    Multiplicity: Singlet
    Trans. Mom.:  0.0018 X  -0.0009 Y   0.0019 Z
    Strength   :     0.0001897447
    D(    3) --> V( 1199) amplitude =  0.7119
    D(    3) --> V( 1200) amplitude = -0.4845
    D(    3) --> V( 1201) amplitude = -0.3220
    D(    3) --> V( 1207) amplitude =  0.2304

 Excited state   5: excitation energy (eV) =    1021.2639
 Total energy for state   5:                  -497.80017091 au
    Multiplicity: Singlet
    Trans. Mom.:  0.0008 X  -0.0004 Y   0.0009 Z
    Strength   :     0.0000389067
    D(    3) --> V( 1200) amplitude = -0.4207
    D(    3) --> V( 1201) amplitude =  0.8477

 Excited state   6: excitation energy (eV) =    1021.4465
 Total energy for state   6:                  -497.79345870 au
    Multiplicity: Singlet
    Trans. Mom.:  0.0004 X   0.0010 Y  -0.0007 Z
    Strength   :     0.0000452046
    D(    3) --> V( 1202) amplitude =  0.9935

 Excited state   7: excitation energy (eV) =    1022.1043
 Total energy for state   7:                  -497.76928509 au
    Multiplicity: Singlet
    Trans. Mom.:  0.0002 X  -0.0000 Y   0.0005 Z
    Strength   :     0.0000062681
    D(    3) --> V( 1204) amplitude =  0.8064
    D(    3) --> V( 1205) amplitude =  0.5633

 Excited state   8: excitation energy (eV) =    1022.1482
 Total energy for state   8:                  -497.76767148 au
    Multiplicity: Singlet
    Trans. Mom.:  0.0007 X   0.0015 Y  -0.0018 Z
    Strength   :     0.0001489870
    D(    3) --> V( 1203) amplitude =  0.8397
    D(    3) --> V( 1205) amplitude =  0.3364
    D(    3) --> V( 1207) amplitude =  0.2893

 Excited state   9: excitation energy (eV) =    1022.6626
 Total energy for state   9:                  -497.74876915 au
    Multiplicity: Singlet
    Trans. Mom.: -0.0002 X   0.0004 Y  -0.0002 Z
    Strength   :     0.0000048664
    D(    3) --> V( 1204) amplitude =  0.2555
    D(    3) --> V( 1205) amplitude = -0.3179
    D(    3) --> V( 1206) amplitude =  0.6589
    D(    3) --> V( 1207) amplitude =  0.5066
    D(    3) --> V( 1208) amplitude =  0.3020

 Excited state  10: excitation energy (eV) =    1022.8664
 Total energy for state  10:                  -497.74127977 au
    Multiplicity: Singlet
    Trans. Mom.:  0.0002 X   0.0002 Y   0.0003 Z
    Strength   :     0.0000037166
    D(    3) --> V( 1205) amplitude = -0.2903
    D(    3) --> V( 1206) amplitude = -0.5978
    D(    3) --> V( 1208) amplitude =  0.7027

 Excited state  11: excitation energy (eV) =    1023.8092
 Total energy for state  11:                  -497.70663284 au
    Multiplicity: Singlet
    Trans. Mom.: -0.0029 X  -0.0025 Y  -0.0001 Z
    Strength   :     0.0003777074
    D(    3) --> V( 1207) amplitude =  0.5070
    D(    3) --> V( 1209) amplitude = -0.2432
    D(    3) --> V( 1210) amplitude =  0.6822
    D(    3) --> V( 1212) amplitude = -0.3254

 Excited state  12: excitation energy (eV) =    1024.6440
 Total energy for state  12:                  -497.67595185 au
    Multiplicity: Singlet
    Trans. Mom.: -0.0007 X  -0.0009 Y   0.0007 Z
    Strength   :     0.0000407760
    D(    3) --> V( 1209) amplitude =  0.9530
    D(    3) --> V( 1210) amplitude =  0.2868

 Excited state  13: excitation energy (eV) =    1025.2737
 Total energy for state  13:                  -497.65281152 au
    Multiplicity: Singlet
    Trans. Mom.:  0.0003 X   0.0007 Y  -0.0007 Z
    Strength   :     0.0000272605
    D(    3) --> V( 1211) amplitude =  0.9629

 Excited state  14: excitation energy (eV) =    1025.5546
 Total energy for state  14:                  -497.64248946 au
    Multiplicity: Singlet
    Trans. Mom.:  0.0004 X   0.0007 Y   0.0010 Z
    Strength   :     0.0000405011
    D(    3) --> V( 1210) amplitude =  0.4213
    D(    3) --> V( 1212) amplitude =  0.8814

 Excited state  15: excitation energy (eV) =    1027.3761
 Total energy for state  15:                  -497.57555070 au
    Multiplicity: Singlet
    Trans. Mom.: -0.0001 X  -0.0007 Y   0.0004 Z
    Strength   :     0.0000157232
    D(    3) --> V( 1213) amplitude =  0.9908

 Excited state  16: excitation energy (eV) =    1027.5608
 Total energy for state  16:                  -497.56876160 au
    Multiplicity: Singlet
    Trans. Mom.: -0.0005 X   0.0026 Y  -0.0033 Z
    Strength   :     0.0004519755
    D(    3) --> V( 1214) amplitude =  0.9563
    D(    3) --> V( 1216) amplitude = -0.2356

 Excited state  17: excitation energy (eV) =    1028.1061
 Total energy for state  17:                  -497.54872476 au
    Multiplicity: Singlet
    Trans. Mom.: -0.0010 X  -0.0099 Y   0.0118 Z
    Strength   :     0.0059736207
    D(    3) --> V( 1214) amplitude =  0.2670
    D(    3) --> V( 1216) amplitude =  0.8449

 Excited state  18: excitation energy (eV) =    1029.2099
 Total energy for state  18:                  -497.50815796 au
    Multiplicity: Singlet
    Trans. Mom.:  0.0003 X   0.0013 Y  -0.0014 Z
    Strength   :     0.0000936784
    D(    3) --> V( 1215) amplitude =  0.9786

 Excited state  19: excitation energy (eV) =    1029.4071
 Total energy for state  19:                  -497.50091314 au
    Multiplicity: Singlet
    Trans. Mom.: -0.0017 X  -0.0044 Y   0.0033 Z
    Strength   :     0.0008247529
    D(    3) --> V( 1216) amplitude = -0.2505
    D(    3) --> V( 1217) amplitude =  0.9282

 Excited state  20: excitation energy (eV) =    1029.7480
 Total energy for state  20:                  -497.48838406 au
    Multiplicity: Singlet
    Trans. Mom.: -0.0011 X  -0.0083 Y   0.0079 Z
    Strength   :     0.0033428789
    D(    3) --> V( 1216) amplitude = -0.2756
    D(    3) --> V( 1217) amplitude = -0.2872
    D(    3) --> V( 1218) amplitude =  0.7563
    D(    3) --> V( 1219) amplitude = -0.4438

 Excited state  21: excitation energy (eV) =    1030.5966
 Total energy for state  21:                  -497.45720053 au
    Multiplicity: Singlet
    Trans. Mom.:  0.0009 X   0.0115 Y  -0.0105 Z
    Strength   :     0.0061090188
    D(    3) --> V( 1218) amplitude =  0.5071
    D(    3) --> V( 1219) amplitude =  0.3291
    D(    3) --> V( 1220) amplitude =  0.4737
    D(    3) --> V( 1223) amplitude =  0.4268
    D(    3) --> V( 1226) amplitude = -0.2894

 Excited state  22: excitation energy (eV) =    1030.9209
 Total energy for state  22:                  -497.44528187 au
    Multiplicity: Singlet
    Trans. Mom.:  0.0005 X  -0.0020 Y   0.0015 Z
    Strength   :     0.0001616644
    D(    3) --> V( 1218) amplitude =  0.3248
    D(    3) --> V( 1219) amplitude =  0.7409
    D(    3) --> V( 1220) amplitude = -0.5145

 Excited state  23: excitation energy (eV) =    1031.4101
 Total energy for state  23:                  -497.42730477 au
    Multiplicity: Singlet
    Trans. Mom.: -0.0009 X  -0.0073 Y   0.0071 Z
    Strength   :     0.0026461571
    D(    3) --> V( 1219) amplitude =  0.2627
    D(    3) --> V( 1220) amplitude =  0.7001
    D(    3) --> V( 1222) amplitude = -0.2406
    D(    3) --> V( 1223) amplitude = -0.5469

 Excited state  24: excitation energy (eV) =    1032.2055
 Total energy for state  24:                  -497.39807195 au
    Multiplicity: Singlet
    Trans. Mom.:  0.0001 X   0.0004 Y  -0.0006 Z
    Strength   :     0.0000129808
    D(    3) --> V( 1221) amplitude =  0.9960

 Excited state  25: excitation energy (eV) =    1032.4150
 Total energy for state  25:                  -497.39037238 au
    Multiplicity: Singlet
    Trans. Mom.:  0.0032 X  -0.0016 Y   0.0049 Z
    Strength   :     0.0009321921
    D(    3) --> V( 1222) amplitude = -0.4884
    D(    3) --> V( 1223) amplitude =  0.5757
    D(    3) --> V( 1226) amplitude =  0.5361

 Excited state  26: excitation energy (eV) =    1032.7193
 Total energy for state  26:                  -497.37918958 au
    Multiplicity: Singlet
    Trans. Mom.:  0.0018 X  -0.0036 Y   0.0054 Z
    Strength   :     0.0011536389
    D(    3) --> V( 1222) amplitude =  0.7943
    D(    3) --> V( 1226) amplitude =  0.5211

 Excited state  27: excitation energy (eV) =    1033.4426
 Total energy for state  27:                  -497.35260961 au
    Multiplicity: Singlet
    Trans. Mom.:  0.0001 X  -0.0008 Y   0.0009 Z
    Strength   :     0.0000402169
    D(    3) --> V( 1224) amplitude =  0.9812

 Excited state  28: excitation energy (eV) =    1033.8823
 Total energy for state  28:                  -497.33645321 au
    Multiplicity: Singlet
    Trans. Mom.:  0.0003 X  -0.0004 Y   0.0008 Z
    Strength   :     0.0000208441
    D(    3) --> V( 1225) amplitude =  0.9825

 Excited state  29: excitation energy (eV) =    1034.8941
 Total energy for state  29:                  -497.29926816 au
    Multiplicity: Singlet
    Trans. Mom.:  0.0007 X   0.0002 Y   0.0021 Z
    Strength   :     0.0001306674
    D(    3) --> V( 1226) amplitude = -0.2839
    D(    3) --> V( 1227) amplitude = -0.5305
    D(    3) --> V( 1228) amplitude =  0.7180

 Excited state  30: excitation energy (eV) =    1035.2223
 Total energy for state  30:                  -497.28720676 au
    Multiplicity: Singlet
    Trans. Mom.: -0.0003 X   0.0011 Y  -0.0000 Z
    Strength   :     0.0000317431
    D(    3) --> V( 1227) amplitude =  0.8386
    D(    3) --> V( 1228) amplitude =  0.5113

 Excited state  31: excitation energy (eV) =    1035.6247
 Total energy for state  31:                  -497.27241831 au
    Multiplicity: Singlet
    Trans. Mom.:  0.0030 X   0.0047 Y  -0.0023 Z
    Strength   :     0.0009171237
    D(    3) --> V( 1226) amplitude =  0.3242
    D(    3) --> V( 1228) amplitude =  0.3238
    D(    3) --> V( 1229) amplitude = -0.2809
    D(    3) --> V( 1230) amplitude =  0.6055
    D(    3) --> V( 1231) amplitude = -0.2670
    D(    3) --> V( 1232) amplitude =  0.4212
    D(    3) --> V( 1233) amplitude = -0.2241

 Excited state  32: excitation energy (eV) =    1036.0605
 Total energy for state  32:                  -497.25640482 au
    Multiplicity: Singlet
    Trans. Mom.: -0.0002 X   0.0012 Y  -0.0009 Z
    Strength   :     0.0000581835
    D(    3) --> V( 1229) amplitude =  0.9516

 Excited state  33: excitation energy (eV) =    1036.9195
 Total energy for state  33:                  -497.22483537 au
    Multiplicity: Singlet
    Trans. Mom.:  0.0017 X  -0.0001 Y   0.0018 Z
    Strength   :     0.0001559968
    D(    3) --> V( 1230) amplitude =  0.7068
    D(    3) --> V( 1231) amplitude =  0.3318
    D(    3) --> V( 1232) amplitude = -0.5915

 Excited state  34: excitation energy (eV) =    1037.1557
 Total energy for state  34:                  -497.21615786 au
    Multiplicity: Singlet
    Trans. Mom.: -0.0005 X   0.0009 Y  -0.0006 Z
    Strength   :     0.0000345484
    D(    3) --> V( 1231) amplitude =  0.8875
    D(    3) --> V( 1232) amplitude =  0.4431

 Excited state  35: excitation energy (eV) =    1038.4143
 Total energy for state  35:                  -497.16990272 au
    Multiplicity: Singlet
    Trans. Mom.:  0.0002 X  -0.0004 Y  -0.0004 Z
    Strength   :     0.0000070491
    D(    3) --> V( 1232) amplitude =  0.3158
    D(    3) --> V( 1233) amplitude =  0.9188

 Excited state  36: excitation energy (eV) =    1038.7028
 Total energy for state  36:                  -497.15930302 au
    Multiplicity: Singlet
    Trans. Mom.:  0.0004 X  -0.0003 Y   0.0047 Z
    Strength   :     0.0005658746
    D(    3) --> V( 1235) amplitude =  0.9267

 Excited state  37: excitation energy (eV) =    1040.5790
 Total energy for state  37:                  -497.09035350 au
    Multiplicity: Singlet
    Trans. Mom.: -0.0001 X   0.0009 Y  -0.0013 Z
    Strength   :     0.0000656661
    D(    3) --> V( 1234) amplitude =  0.9648

 Excited state  38: excitation energy (eV) =    1041.5957
 Total energy for state  38:                  -497.05299097 au
    Multiplicity: Singlet
    Trans. Mom.: -0.0036 X   0.0062 Y  -0.0099 Z
    Strength   :     0.0037988877
    D(    3) --> V( 1238) amplitude =  0.9114

 Excited state  39: excitation energy (eV) =    1044.6070
 Total energy for state  39:                  -496.94232511 au
    Multiplicity: Singlet
    Trans. Mom.:  0.0001 X   0.0004 Y  -0.0002 Z
    Strength   :     0.0000059450
    D(    3) --> V( 1236) amplitude =  0.9860

 Excited state  40: excitation energy (eV) =    1044.8779
 Total energy for state  40:                  -496.93237096 au
    Multiplicity: Singlet
    Trans. Mom.:  0.0004 X   0.0004 Y  -0.0008 Z
    Strength   :     0.0000258812
    D(    3) --> V( 1237) amplitude =  0.9969

 Excited state  41: excitation energy (eV) =    1045.2238
 Total energy for state  41:                  -496.91965910 au
    Multiplicity: Singlet
    Trans. Mom.: -0.0002 X   0.0001 Y   0.0004 Z
    Strength   :     0.0000043676
    D(    3) --> V( 1239) amplitude =  0.9945

 Excited state  42: excitation energy (eV) =    1046.1673
 Total energy for state  42:                  -496.88498722 au
    Multiplicity: Singlet
    Trans. Mom.: -0.0002 X  -0.0018 Y   0.0009 Z
    Strength   :     0.0001015105
    D(    3) --> V( 1240) amplitude =  0.9044
    D(    3) --> V( 1242) amplitude =  0.2918

 Excited state  43: excitation energy (eV) =    1046.5943
 Total energy for state  43:                  -496.86929586 au
    Multiplicity: Singlet
    Trans. Mom.:  0.0005 X  -0.0011 Y   0.0012 Z
    Strength   :     0.0000692963
    D(    3) --> V( 1240) amplitude = -0.2671
    D(    3) --> V( 1241) amplitude =  0.8989
    D(    3) --> V( 1242) amplitude =  0.2775

 Excited state  44: excitation energy (eV) =    1046.6745
 Total energy for state  44:                  -496.86634675 au
    Multiplicity: Singlet
    Trans. Mom.: -0.0012 X  -0.0011 Y   0.0017 Z
    Strength   :     0.0001468677
    D(    3) --> V( 1240) amplitude = -0.2849
    D(    3) --> V( 1241) amplitude = -0.3771
    D(    3) --> V( 1242) amplitude =  0.7981
    D(    3) --> V( 1245) amplitude =  0.2181

 Excited state  45: excitation energy (eV) =    1047.1266
 Total energy for state  45:                  -496.84973440 au
    Multiplicity: Singlet
    Trans. Mom.:  0.0012 X  -0.0006 Y  -0.0002 Z
    Strength   :     0.0000480332
    D(    3) --> V( 1243) amplitude =  0.9736

 Excited state  46: excitation energy (eV) =    1047.2186
 Total energy for state  46:                  -496.84635212 au
    Multiplicity: Singlet
    Trans. Mom.: -0.0008 X  -0.0021 Y   0.0037 Z
    Strength   :     0.0004852488
    D(    3) --> V( 1242) amplitude = -0.3984
    D(    3) --> V( 1245) amplitude =  0.7380
    D(    3) --> V( 1247) amplitude = -0.2412
    D(    3) --> V( 1261) amplitude =  0.2832

 Excited state  47: excitation energy (eV) =    1047.6457
 Total energy for state  47:                  -496.83065513 au
    Multiplicity: Singlet
    Trans. Mom.:  0.0011 X   0.0002 Y  -0.0013 Z
    Strength   :     0.0000765217
    D(    3) --> V( 1244) amplitude =  0.9194
    D(    3) --> V( 1247) amplitude =  0.2536

 Excited state  48: excitation energy (eV) =    1047.7675
 Total energy for state  48:                  -496.82617815 au
    Multiplicity: Singlet
    Trans. Mom.:  0.0019 X   0.0026 Y  -0.0004 Z
    Strength   :     0.0002672909
    D(    3) --> V( 1245) amplitude =  0.2322
    D(    3) --> V( 1247) amplitude =  0.8044

 Excited state  49: excitation energy (eV) =    1048.0368
 Total energy for state  49:                  -496.81628302 au
    Multiplicity: Singlet
    Trans. Mom.: -0.0001 X  -0.0003 Y  -0.0005 Z
    Strength   :     0.0000087818
    D(    3) --> V( 1245) amplitude =  0.2200
    D(    3) --> V( 1246) amplitude =  0.9462

 Excited state  50: excitation energy (eV) =    1048.1370
 Total energy for state  50:                  -496.81259969 au
    Multiplicity: Singlet
    Trans. Mom.:  0.0031 X  -0.0032 Y  -0.0013 Z
    Strength   :     0.0005620008
    D(    3) --> V( 1244) amplitude = -0.2414
    D(    3) --> V( 1245) amplitude =  0.2726
    D(    3) --> V( 1250) amplitude = -0.2507
    D(    3) --> V( 1251) amplitude = -0.2873
    D(    3) --> V( 1252) amplitude =  0.3018
    D(    3) --> V( 1253) amplitude =  0.4447
    D(    3) --> V( 1256) amplitude =  0.2333
    D(    3) --> V( 1261) amplitude = -0.2470
    D(    3) --> V( 1262) amplitude =  0.2872

 Excited state  51: excitation energy (eV) =    1048.4478
 Total energy for state  51:                  -496.80117995 au
    Multiplicity: Singlet
    Trans. Mom.:  0.0004 X  -0.0019 Y   0.0006 Z
    Strength   :     0.0001084805
    D(    3) --> V( 1245) amplitude = -0.4229
    D(    3) --> V( 1252) amplitude =  0.5180
    D(    3) --> V( 1260) amplitude = -0.2396
    D(    3) --> V( 1261) amplitude =  0.4026
    D(    3) --> V( 1264) amplitude =  0.2898

 Excited state  52: excitation energy (eV) =    1049.4708
 Total energy for state  52:                  -496.76358637 au
    Multiplicity: Singlet
    Trans. Mom.:  0.0033 X  -0.0003 Y   0.0014 Z
    Strength   :     0.0003332452
    D(    3) --> V( 1247) amplitude = -0.2188
    D(    3) --> V( 1248) amplitude =  0.5625
    D(    3) --> V( 1249) amplitude =  0.6026
    D(    3) --> V( 1251) amplitude =  0.2197

 Excited state  53: excitation energy (eV) =    1049.7004
 Total energy for state  53:                  -496.75514829 au
    Multiplicity: Singlet
    Trans. Mom.: -0.0016 X   0.0005 Y  -0.0010 Z
    Strength   :     0.0000994089
    D(    3) --> V( 1248) amplitude =  0.7943
    D(    3) --> V( 1249) amplitude = -0.3705
    D(    3) --> V( 1250) amplitude = -0.2741
    D(    3) --> V( 1251) amplitude = -0.2450

 Excited state  54: excitation energy (eV) =    1049.8364
 Total energy for state  54:                  -496.75014935 au
    Multiplicity: Singlet
    Trans. Mom.:  0.0017 X  -0.0009 Y   0.0008 Z
    Strength   :     0.0001105429
    D(    3) --> V( 1249) amplitude = -0.4264
    D(    3) --> V( 1250) amplitude =  0.8210
    D(    3) --> V( 1253) amplitude =  0.2287

 Excited state  55: excitation energy (eV) =    1049.9302
 Total energy for state  55:                  -496.74670079 au
    Multiplicity: Singlet
    Trans. Mom.:  0.0031 X  -0.0004 Y   0.0020 Z
    Strength   :     0.0003505167
    D(    3) --> V( 1249) amplitude = -0.5276
    D(    3) --> V( 1250) amplitude = -0.3800
    D(    3) --> V( 1251) amplitude =  0.5728
    D(    3) --> V( 1260) amplitude =  0.2244

 Excited state  56: excitation energy (eV) =    1050.4134
 Total energy for state  56:                  -496.72894504 au
    Multiplicity: Singlet
    Trans. Mom.: -0.0015 X   0.0000 Y  -0.0040 Z
    Strength   :     0.0004801518
    D(    3) --> V( 1251) amplitude =  0.5693
    D(    3) --> V( 1252) amplitude = -0.4121
    D(    3) --> V( 1253) amplitude =  0.3651
    D(    3) --> V( 1260) amplitude = -0.2393
    D(    3) --> V( 1262) amplitude =  0.3202
    D(    3) --> V( 1263) amplitude =  0.2464

 Excited state  57: excitation energy (eV) =    1050.9402
 Total energy for state  57:                  -496.70958402 au
    Multiplicity: Singlet
    Trans. Mom.:  0.0008 X  -0.0018 Y   0.0043 Z
    Strength   :     0.0005728246
    D(    3) --> V( 1251) amplitude = -0.2721
    D(    3) --> V( 1252) amplitude = -0.3826
    D(    3) --> V( 1253) amplitude =  0.6191
    D(    3) --> V( 1258) amplitude = -0.2474
    D(    3) --> V( 1259) amplitude = -0.2216
    D(    3) --> V( 1261) amplitude =  0.3951
    D(    3) --> V( 1262) amplitude = -0.2239

 Excited state  58: excitation energy (eV) =    1051.2475
 Total energy for state  58:                  -496.69829397 au
    Multiplicity: Singlet
    Trans. Mom.: -0.0010 X  -0.0011 Y   0.0001 Z
    Strength   :     0.0000585117
    D(    3) --> V( 1254) amplitude =  0.9202

 Excited state  59: excitation energy (eV) =    1051.7944
 Total energy for state  59:                  -496.67819225 au
    Multiplicity: Singlet
    Trans. Mom.:  0.0010 X   0.0010 Y   0.0012 Z
    Strength   :     0.0000866870
    D(    3) --> V( 1252) amplitude = -0.2276
    D(    3) --> V( 1255) amplitude = -0.2282
    D(    3) --> V( 1256) amplitude =  0.7274
    D(    3) --> V( 1260) amplitude = -0.3711

 Excited state  60: excitation energy (eV) =    1051.9207
 Total energy for state  60:                  -496.67355399 au
    Multiplicity: Singlet
    Trans. Mom.:  0.0035 X  -0.0007 Y  -0.0030 Z
    Strength   :     0.0005622720
    D(    3) --> V( 1252) amplitude = -0.3311
    D(    3) --> V( 1255) amplitude =  0.4918
    D(    3) --> V( 1262) amplitude =  0.3110
    D(    3) --> V( 1264) amplitude =  0.5952
    D(    3) --> V( 1271) amplitude =  0.2225

 Excited state  61: excitation energy (eV) =    1052.2148
 Total energy for state  61:                  -496.66274363 au
    Multiplicity: Singlet
    Trans. Mom.: -0.0025 X  -0.0001 Y   0.0014 Z
    Strength   :     0.0002163183
    D(    3) --> V( 1255) amplitude =  0.7892
    D(    3) --> V( 1260) amplitude = -0.4495
    D(    3) --> V( 1264) amplitude = -0.2837

 Excited state  62: excitation energy (eV) =    1053.0330
 Total energy for state  62:                  -496.63267530 au
    Multiplicity: Singlet
    Trans. Mom.:  0.0003 X   0.0008 Y   0.0004 Z
    Strength   :     0.0000229315
    D(    3) --> V( 1257) amplitude =  0.9593

 Excited state  63: excitation energy (eV) =    1053.6058
 Total energy for state  63:                  -496.61162550 au
    Multiplicity: Singlet
    Trans. Mom.: -0.0029 X  -0.0031 Y   0.0003 Z
    Strength   :     0.0004692992
    D(    3) --> V( 1256) amplitude =  0.3799
    D(    3) --> V( 1259) amplitude = -0.4047
    D(    3) --> V( 1260) amplitude =  0.4120
    D(    3) --> V( 1261) amplitude =  0.3264
    D(    3) --> V( 1262) amplitude =  0.2501
    D(    3) --> V( 1263) amplitude =  0.3393
    D(    3) --> V( 1264) amplitude = -0.3526
    D(    3) --> V( 1270) amplitude = -0.2156

 Excited state  64: excitation energy (eV) =    1053.7613
 Total energy for state  64:                  -496.60591261 au
    Multiplicity: Singlet
    Trans. Mom.:  0.0018 X   0.0016 Y   0.0001 Z
    Strength   :     0.0001529062
    D(    3) --> V( 1258) amplitude =  0.8087
    D(    3) --> V( 1259) amplitude = -0.4840

 Excited state  65: excitation energy (eV) =    1053.9768
 Total energy for state  65:                  -496.59799382 au
    Multiplicity: Singlet
    Trans. Mom.: -0.0007 X  -0.0002 Y   0.0008 Z
    Strength   :     0.0000291381
    D(    3) --> V( 1258) amplitude =  0.4173
    D(    3) --> V( 1259) amplitude =  0.6780
    D(    3) --> V( 1261) amplitude =  0.5275

 Excited state  66: excitation energy (eV) =    1055.3691
 Total energy for state  66:                  -496.54682682 au
    Multiplicity: Singlet
    Trans. Mom.:  0.0030 X  -0.0044 Y   0.0011 Z
    Strength   :     0.0007724178
    D(    3) --> V( 1256) amplitude = -0.2248
    D(    3) --> V( 1262) amplitude =  0.3901
    D(    3) --> V( 1264) amplitude = -0.2270
    D(    3) --> V( 1267) amplitude =  0.4369
    D(    3) --> V( 1269) amplitude = -0.2324
    D(    3) --> V( 1270) amplitude =  0.3767
    D(    3) --> V( 1271) amplitude = -0.3791

 Excited state  67: excitation energy (eV) =    1055.6481
 Total energy for state  67:                  -496.53657490 au
    Multiplicity: Singlet
    Trans. Mom.:  0.0014 X  -0.0028 Y   0.0005 Z
    Strength   :     0.0002580084
    D(    3) --> V( 1262) amplitude = -0.4596
    D(    3) --> V( 1263) amplitude =  0.7475
    D(    3) --> V( 1267) amplitude =  0.2457

 Excited state  68: excitation energy (eV) =    1056.7686
 Total energy for state  68:                  -496.49539731 au
    Multiplicity: Singlet
    Trans. Mom.: -0.0030 X   0.0018 Y   0.0028 Z
    Strength   :     0.0005174136
    D(    3) --> V( 1265) amplitude =  0.9026
    D(    3) --> V( 1270) amplitude = -0.2474
    D(    3) --> V( 1272) amplitude = -0.2491

 Excited state  69: excitation energy (eV) =    1057.2919
 Total energy for state  69:                  -496.47616425 au
    Multiplicity: Singlet
    Trans. Mom.: -0.0030 X   0.0034 Y   0.0029 Z
    Strength   :     0.0007434538
    D(    3) --> V( 1265) amplitude = -0.2598
    D(    3) --> V( 1266) amplitude =  0.7650
    D(    3) --> V( 1267) amplitude =  0.2773
    D(    3) --> V( 1270) amplitude = -0.2449
    D(    3) --> V( 1272) amplitude = -0.3342

 Excited state  70: excitation energy (eV) =    1057.3731
 Total energy for state  70:                  -496.47318125 au
    Multiplicity: Singlet
    Trans. Mom.:  0.0036 X  -0.0020 Y  -0.0033 Z
    Strength   :     0.0007392371
    D(    3) --> V( 1265) amplitude =  0.2455
    D(    3) --> V( 1266) amplitude =  0.5994
    D(    3) --> V( 1267) amplitude = -0.5889
    D(    3) --> V( 1272) amplitude =  0.3274

 Excited state  71: excitation energy (eV) =    1058.2856
 Total energy for state  71:                  -496.43964532 au
    Multiplicity: Singlet
    Trans. Mom.:  0.0037 X   0.0012 Y  -0.0017 Z
    Strength   :     0.0004692008
    D(    3) --> V( 1264) amplitude = -0.2496
    D(    3) --> V( 1267) amplitude =  0.3222
    D(    3) --> V( 1268) amplitude =  0.6517
    D(    3) --> V( 1269) amplitude =  0.3619
    D(    3) --> V( 1271) amplitude =  0.4413

 Excited state  72: excitation energy (eV) =    1058.5717
 Total energy for state  72:                  -496.42913128 au
    Multiplicity: Singlet
    Trans. Mom.: -0.0037 X  -0.0008 Y   0.0018 Z
    Strength   :     0.0004436665
    D(    3) --> V( 1268) amplitude =  0.6919
    D(    3) --> V( 1269) amplitude = -0.3266
    D(    3) --> V( 1270) amplitude = -0.4477
    D(    3) --> V( 1271) amplitude = -0.3596

 Excited state  73: excitation energy (eV) =    1059.5298
 Total energy for state  73:                  -496.39392433 au
    Multiplicity: Singlet
    Trans. Mom.:  0.0043 X  -0.0039 Y  -0.0052 Z
    Strength   :     0.0015692099
    D(    3) --> V( 1267) amplitude =  0.3247
    D(    3) --> V( 1270) amplitude = -0.5033
    D(    3) --> V( 1272) amplitude =  0.5814
    D(    3) --> V( 1273) amplitude = -0.4642

 Excited state  74: excitation energy (eV) =    1059.6610
 Total energy for state  74:                  -496.38910104 au
    Multiplicity: Singlet
    Trans. Mom.: -0.0008 X  -0.0017 Y   0.0005 Z
    Strength   :     0.0000990332
    D(    3) --> V( 1269) amplitude =  0.8036
    D(    3) --> V( 1271) amplitude = -0.5607

 Excited state  75: excitation energy (eV) =    1063.2588
 Total energy for state  75:                  -496.25688459 au
    Multiplicity: Singlet
    Trans. Mom.: -0.0000 X   0.0028 Y   0.0014 Z
    Strength   :     0.0002617135
    D(    3) --> V( 1272) amplitude =  0.5354
    D(    3) --> V( 1273) amplitude =  0.8021

 Excited state  76: excitation energy (eV) =    1069.6092
 Total energy for state  76:                  -496.02351199 au
    Multiplicity: Singlet
    Trans. Mom.:  0.0057 X   0.0012 Y   0.0029 Z
    Strength   :     0.0011257024
    D(    3) --> V( 1274) amplitude =  0.9749

 Excited state  77: excitation energy (eV) =    1080.0043
 Total energy for state  77:                  -495.64150042 au
    Multiplicity: Singlet
    Trans. Mom.:  0.0010 X   0.0008 Y   0.0001 Z
    Strength   :     0.0000422163
    D(    3) --> V( 1275) amplitude =  0.9979

 Excited state  78: excitation energy (eV) =    1081.7974
 Total energy for state  78:                  -495.57560549 au
    Multiplicity: Singlet
    Trans. Mom.:  0.0051 X   0.0047 Y   0.0014 Z
    Strength   :     0.0013436278
    D(    3) --> V( 1276) amplitude =  0.3424
    D(    3) --> V( 1277) amplitude =  0.7911
    D(    3) --> V( 1281) amplitude =  0.3946
    D(    3) --> V( 1287) amplitude =  0.2363

 Excited state  79: excitation energy (eV) =    1081.9972
 Total energy for state  79:                  -495.56826162 au
    Multiplicity: Singlet
    Trans. Mom.:  0.0004 X   0.0006 Y  -0.0005 Z
    Strength   :     0.0000227542
    D(    3) --> V( 1276) amplitude =  0.9161
    D(    3) --> V( 1277) amplitude = -0.3984

 Excited state  80: excitation energy (eV) =    1082.5255
 Total energy for state  80:                  -495.54884852 au
    Multiplicity: Singlet
    Trans. Mom.: -0.0019 X  -0.0018 Y  -0.0004 Z
    Strength   :     0.0001859321
    D(    3) --> V( 1278) amplitude =  0.9403
    D(    3) --> V( 1281) amplitude = -0.2184

 Excited state  81: excitation energy (eV) =    1082.5924
 Total energy for state  81:                  -495.54638964 au
    Multiplicity: Singlet
    Trans. Mom.:  0.0061 X   0.0053 Y   0.0014 Z
    Strength   :     0.0017826327
    D(    3) --> V( 1277) amplitude = -0.4205
    D(    3) --> V( 1278) amplitude =  0.3349
    D(    3) --> V( 1279) amplitude =  0.3518
    D(    3) --> V( 1281) amplitude =  0.6807
    D(    3) --> V( 1287) amplitude =  0.2812

 Excited state  82: excitation energy (eV) =    1084.1081
 Total energy for state  82:                  -495.49068632 au
    Multiplicity: Singlet
    Trans. Mom.: -0.0013 X  -0.0009 Y  -0.0007 Z
    Strength   :     0.0000750504
    D(    3) --> V( 1279) amplitude =  0.9065
    D(    3) --> V( 1281) amplitude = -0.4065

 Excited state  83: excitation energy (eV) =    1084.1991
 Total energy for state  83:                  -495.48734255 au
    Multiplicity: Singlet
    Trans. Mom.:  0.0002 X   0.0005 Y  -0.0005 Z
    Strength   :     0.0000152588
    D(    3) --> V( 1280) amplitude =  0.9982

 Excited state  84: excitation energy (eV) =    1085.8894
 Total energy for state  84:                  -495.42522460 au
    Multiplicity: Singlet
    Trans. Mom.: -0.0004 X  -0.0002 Y   0.0001 Z
    Strength   :     0.0000066730
    D(    3) --> V( 1282) amplitude =  0.9929

 Excited state  85: excitation energy (eV) =    1087.3786
 Total energy for state  85:                  -495.37049719 au
    Multiplicity: Singlet
    Trans. Mom.:  0.0019 X   0.0028 Y  -0.0002 Z
    Strength   :     0.0003065058
    D(    3) --> V( 1283) amplitude =  0.9430
    D(    3) --> V( 1287) amplitude =  0.2698

 Excited state  86: excitation energy (eV) =    1087.5051
 Total energy for state  86:                  -495.36584936 au
    Multiplicity: Singlet
    Trans. Mom.: -0.0038 X  -0.0052 Y   0.0010 Z
    Strength   :     0.0011346124
    D(    3) --> V( 1281) amplitude =  0.2225
    D(    3) --> V( 1283) amplitude =  0.2867
    D(    3) --> V( 1284) amplitude =  0.7622
    D(    3) --> V( 1287) amplitude = -0.5078

 Excited state  87: excitation energy (eV) =    1087.6781
 Total energy for state  87:                  -495.35949231 au
    Multiplicity: Singlet
    Trans. Mom.:  0.0047 X   0.0060 Y  -0.0006 Z
    Strength   :     0.0015415094
    D(    3) --> V( 1281) amplitude = -0.2797
    D(    3) --> V( 1284) amplitude =  0.6363
    D(    3) --> V( 1287) amplitude =  0.6604

 Excited state  88: excitation energy (eV) =    1089.0808
 Total energy for state  88:                  -495.30794589 au
    Multiplicity: Singlet
    Trans. Mom.:  0.0010 X   0.0006 Y   0.0007 Z
    Strength   :     0.0000481092
    D(    3) --> V( 1285) amplitude =  0.9820

 Excited state  89: excitation energy (eV) =    1089.6953
 Total energy for state  89:                  -495.28536133 au
    Multiplicity: Singlet
    Trans. Mom.:  0.0004 X   0.0053 Y  -0.0056 Z
    Strength   :     0.0016085153
    D(    3) --> V( 1286) amplitude =  0.9325
    D(    3) --> V( 1287) amplitude =  0.2333
    D(    3) --> V( 1288) amplitude =  0.2618

 Excited state  90: excitation energy (eV) =    1091.8665
 Total energy for state  90:                  -495.20557035 au
    Multiplicity: Singlet
    Trans. Mom.:  0.0020 X   0.0138 Y  -0.0145 Z
    Strength   :     0.0108128935
    D(    3) --> V( 1286) amplitude = -0.2766
    D(    3) --> V( 1288) amplitude =  0.9597

 Excited state  91: excitation energy (eV) =    1114.8475
 Total energy for state  91:                  -494.36103685 au
    Multiplicity: Singlet
    Trans. Mom.:  0.0039 X  -0.0021 Y  -0.0007 Z
    Strength   :     0.0005440576
    D(    3) --> V( 1289) amplitude =  0.6854
    D(    3) --> V( 1290) amplitude = -0.3850
    D(    3) --> V( 1291) amplitude = -0.5492

 Excited state  92: excitation energy (eV) =    1115.4582
 Total energy for state  92:                  -494.33859286 au
    Multiplicity: Singlet
    Trans. Mom.: -0.0019 X  -0.0028 Y  -0.0032 Z
    Strength   :     0.0005943793
    D(    3) --> V( 1289) amplitude =  0.2900
    D(    3) --> V( 1290) amplitude =  0.7407
    D(    3) --> V( 1292) amplitude =  0.2220
    D(    3) --> V( 1293) amplitude = -0.4520
    D(    3) --> V( 1294) amplitude =  0.3146

 Excited state  93: excitation energy (eV) =    1115.6145
 Total energy for state  93:                  -494.33284823 au
    Multiplicity: Singlet
    Trans. Mom.:  0.0015 X   0.0035 Y   0.0036 Z
    Strength   :     0.0007376696
    D(    3) --> V( 1289) amplitude =  0.5252
    D(    3) --> V( 1290) amplitude =  0.3942
    D(    3) --> V( 1292) amplitude = -0.3110
    D(    3) --> V( 1293) amplitude =  0.5582
    D(    3) --> V( 1294) amplitude = -0.3722

 Excited state  94: excitation energy (eV) =    1115.9429
 Total energy for state  94:                  -494.32078157 au
    Multiplicity: Singlet
    Trans. Mom.: -0.0019 X  -0.0005 Y  -0.0008 Z
    Strength   :     0.0001226163
    D(    3) --> V( 1289) amplitude =  0.4050
    D(    3) --> V( 1290) amplitude = -0.3802
    D(    3) --> V( 1291) amplitude =  0.8081

 Excited state  95: excitation energy (eV) =    1116.3284
 Total energy for state  95:                  -494.30661321 au
    Multiplicity: Singlet
    Trans. Mom.:  0.0004 X   0.0004 Y   0.0010 Z
    Strength   :     0.0000337381
    D(    3) --> V( 1292) amplitude =  0.9075
    D(    3) --> V( 1293) amplitude =  0.3705

 Excited state  96: excitation energy (eV) =    1116.7809
 Total energy for state  96:                  -494.28998272 au
    Multiplicity: Singlet
    Trans. Mom.: -0.0011 X  -0.0005 Y  -0.0006 Z
    Strength   :     0.0000515694
    D(    3) --> V( 1293) amplitude =  0.5105
    D(    3) --> V( 1294) amplitude =  0.8426

 Excited state  97: excitation energy (eV) =    1117.0968
 Total energy for state  97:                  -494.27837675 au
    Multiplicity: Singlet
    Trans. Mom.:  0.0022 X   0.0000 Y  -0.0007 Z
    Strength   :     0.0001443800
    D(    3) --> V( 1293) amplitude =  0.2136
    D(    3) --> V( 1295) amplitude =  0.9437

 Excited state  98: excitation energy (eV) =    1117.5826
 Total energy for state  98:                  -494.26052373 au
    Multiplicity: Singlet
    Trans. Mom.: -0.0002 X   0.0005 Y  -0.0005 Z
    Strength   :     0.0000134947
    D(    3) --> V( 1296) amplitude =  0.9844

 ---------------------------------------------------
  SETman timing summary (seconds)
  CPU time            297799.68s
  System time              0.01s
  Wall time           149114.11s
================================================================================
                             Excited State Analysis
================================================================================

  Ground State (Reference) :
  -------------------------
    NOs
      Occupation of frontier NOs:
         0.0000   0.0000   2.0000   2.0000
      Number of electrons: 70.000000
      Number of unpaired electrons: n_u =  0.00000, n_u,nl =  0.00000
    
    Mulliken Population Analysis (State DM)
    Atom      Charge (e)
    --------------------
     1 O       -0.717031
     2 O       -0.670890
     3 H        0.360078
     4 H        0.355134
     5 H        0.330941
     6 H        0.363022
     7 O       -0.674321
     8 H        0.381722
     9 H        0.283760
    10 O       -0.665916
    11 H        0.321135
    12 H        0.335953
    13 O       -0.655733
    14 H        0.368997
    15 H        0.285083
    16 O       -0.661743
    17 H        0.344180
    18 H        0.320024
    19 O       -0.657334
    20 H        0.266079
    21 H        0.386860
    --------------------
    Sum:        0.000000
    
    Multipole moment analysis of the density matrix
      Molecular charge:                      0.000000
      Number of electrons:                   70.000000
        Center of electronic charge [Ang]: [  0.000632,  -0.000813,  -0.003252]
      Total nuclear charge:                  70.000000
        Center of nuclear charge [Ang]:    [  0.006283,   0.002283,  -0.023770]
      Dipole moment [D]:                     7.230707
        Cartesian components [D]:          [  1.900010,   1.040761,  -6.898544]
      RMS size of the density [Ang]:         3.025437
        Cartesian components [Ang]:        [  1.835981,   2.040162,   1.272863]
    

  ----------------------------------------------------------------------------
                  Analysis of Unrelaxed Density Matrices
  ----------------------------------------------------------------------------

  Singlet 1 :
  -------------------------
    NOs
      Occupation of frontier NOs:
         0.0000   1.0000   1.0000   2.0000
      Number of electrons: 70.000000
      Number of unpaired electrons: n_u =  2.00000, n_u,nl =  2.00000
      NO participation ratio (PR_NO):  2.000000
    
    NDOs
      Leading detachment eigenvalues:
        -1.0000  -0.0000
      Leading attachment eigenvalues:
         1.0000   0.0000
      Number of detached / attached electrons: p_D =  1.0000, p_A =  1.0000
      Number of involved orbitals: PR_D =  1.000000, PR_A =  1.000000
    
    Mulliken Population Analysis (State/Difference DM)
    Atom      Charge (e)              h+              e-           Del q
    --------------------------------------------------------------------
     1 O       -0.497271        0.990050       -0.770290        0.219761
     2 O       -0.700297       -0.000004       -0.029403       -0.029407
     3 H        0.351250        0.000000       -0.008828       -0.008827
     4 H        0.351923        0.000001       -0.003212       -0.003211
     5 H        0.316755        0.003899       -0.018085       -0.014186
     6 H        0.288685        0.006042       -0.080378       -0.074336
     7 O       -0.701125        0.000001       -0.026805       -0.026804
     8 H        0.380895       -0.000001       -0.000826       -0.000827
     9 H        0.283191        0.000001       -0.000570       -0.000569
    10 O       -0.672436       -0.000000       -0.006520       -0.006520
    11 H        0.321013       -0.000000       -0.000121       -0.000122
    12 H        0.335725        0.000000       -0.000229       -0.000228
    13 O       -0.685385       -0.000001       -0.029652       -0.029652
    14 H        0.356055        0.000011       -0.012953       -0.012942
    15 H        0.280275       -0.000000       -0.004808       -0.004808
    16 O       -0.662424       -0.000000       -0.000681       -0.000681
    17 H        0.343847        0.000000       -0.000333       -0.000333
    18 H        0.319728        0.000000       -0.000297       -0.000297
    19 O       -0.660510        0.000000       -0.003176       -0.003176
    20 H        0.265020       -0.000000       -0.001058       -0.001058
    21 H        0.385085        0.000001       -0.001776       -0.001775
    --------------------------------------------------------------------
    Sum:       -0.000000        1.000000       -1.000000       -0.000000
    
    Multipole moment analysis of the density matrix
      Molecular charge:                      -0.000000
      Number of electrons:                   70.000000
        Center of electronic charge [Ang]: [  0.001758,  -0.000534,  -0.005178]
      Total nuclear charge:                  70.000000
        Center of nuclear charge [Ang]:    [  0.006283,   0.002283,  -0.023770]
      Dipole moment [D]:                     6.502898
        Cartesian components [D]:          [  1.521430,   0.946948,  -6.251097]
      RMS size of the density [Ang]:         3.028712
        Cartesian components [Ang]:        [  1.837917,   2.042192,   1.274601]
    
    Exciton analysis of the difference density matrix
      <r_h> [Ang]:                  [ -0.225548,  -0.184092,   0.174266]
      <r_e> [Ang]:                  [ -0.146730,  -0.164560,   0.039472]
      |<r_e - r_h>| [Ang]:            0.157364
      Hole size [Ang]:                0.122786
        Cartesian components [Ang]: [  0.070886,   0.070892,   0.070894]
      Electron size [Ang]:            1.212150
        Cartesian components [Ang]: [  0.729705,   0.769454,   0.587178]

  Singlet 2 :
  -------------------------
    NOs
      Occupation of frontier NOs:
         0.0000   1.0000   1.0000   2.0000
      Number of electrons: 70.000000
      Number of unpaired electrons: n_u =  2.00000, n_u,nl =  2.00000
      NO participation ratio (PR_NO):  2.000000
    
    NDOs
      Leading detachment eigenvalues:
        -1.0000  -0.0000
      Leading attachment eigenvalues:
         1.0000   0.0000
      Number of detached / attached electrons: p_D =  1.0000, p_A =  1.0000
      Number of involved orbitals: PR_D =  1.000000, PR_A =  1.000000
    
    Mulliken Population Analysis (State/Difference DM)
    Atom      Charge (e)              h+              e-           Del q
    --------------------------------------------------------------------
     1 O       -0.408583        0.990050       -0.681602        0.308448
     2 O       -0.723880       -0.000004       -0.052986       -0.052990
     3 H        0.353018        0.000000       -0.007060       -0.007060
     4 H        0.339839        0.000001       -0.015296       -0.015295
     5 H        0.277946        0.003899       -0.056894       -0.052996
     6 H        0.301441        0.006042       -0.067623       -0.061581
     7 O       -0.696092        0.000001       -0.021772       -0.021771
     8 H        0.380653       -0.000001       -0.001068       -0.001069
     9 H        0.283352        0.000001       -0.000409       -0.000409
    10 O       -0.686248       -0.000000       -0.020332       -0.020332
    11 H        0.320437       -0.000000       -0.000698       -0.000698
    12 H        0.334658        0.000000       -0.001295       -0.001295
    13 O       -0.692961       -0.000001       -0.037227       -0.037228
    14 H        0.352295        0.000011       -0.016713       -0.016702
    15 H        0.278160       -0.000000       -0.006923       -0.006923
    16 O       -0.663483       -0.000000       -0.001740       -0.001740
    17 H        0.343215        0.000000       -0.000965       -0.000965
    18 H        0.319743        0.000000       -0.000282       -0.000281
    19 O       -0.663322        0.000000       -0.005988       -0.005988
    20 H        0.265493       -0.000000       -0.000586       -0.000586
    21 H        0.384320        0.000001       -0.002541       -0.002540
    --------------------------------------------------------------------
    Sum:        0.000000        1.000000       -1.000000        0.000000
    
    Multipole moment analysis of the density matrix
      Molecular charge:                      0.000000
      Number of electrons:                   70.000000
        Center of electronic charge [Ang]: [  0.001453,  -0.000697,  -0.006536]
      Total nuclear charge:                  70.000000
        Center of nuclear charge [Ang]:    [  0.006283,   0.002283,  -0.023770]
      Dipole moment [D]:                     6.100720
        Cartesian components [D]:          [  1.624234,   1.001859,  -5.794560]
      RMS size of the density [Ang]:         3.029784
        Cartesian components [Ang]:        [  1.838754,   2.042684,   1.275154]
    
    Exciton analysis of the difference density matrix
      <r_h> [Ang]:                  [ -0.225548,  -0.184092,   0.174266]
      <r_e> [Ang]:                  [ -0.168133,  -0.175993,  -0.055577]
      |<r_e - r_h>| [Ang]:            0.237044
      Hole size [Ang]:                0.122786
        Cartesian components [Ang]: [  0.070886,   0.070892,   0.070894]
      Electron size [Ang]:            1.383098
        Cartesian components [Ang]: [  0.860803,   0.853720,   0.665688]

  Singlet 3 :
  -------------------------
    NOs
      Occupation of frontier NOs:
         0.0000   1.0000   1.0000   2.0000
      Number of electrons: 70.000000
      Number of unpaired electrons: n_u =  2.00000, n_u,nl =  2.00000
      NO participation ratio (PR_NO):  2.000000
    
    NDOs
      Leading detachment eigenvalues:
        -1.0000  -0.0000
      Leading attachment eigenvalues:
         1.0000   0.0000
      Number of detached / attached electrons: p_D =  1.0000, p_A =  1.0000
      Number of involved orbitals: PR_D =  1.000000, PR_A =  1.000000
    
    Mulliken Population Analysis (State/Difference DM)
    Atom      Charge (e)              h+              e-           Del q
    --------------------------------------------------------------------
     1 O       -0.254392        0.990050       -0.527411        0.462640
     2 O       -0.759112       -0.000004       -0.088218       -0.088222
     3 H        0.353481        0.000000       -0.006597       -0.006597
     4 H        0.351792        0.000001       -0.003343       -0.003342
     5 H        0.312441        0.003899       -0.022399       -0.018500
     6 H        0.356782        0.006042       -0.012281       -0.006239
     7 O       -0.693672        0.000001       -0.019352       -0.019351
     8 H        0.379031       -0.000001       -0.002690       -0.002691
     9 H        0.282790        0.000001       -0.000971       -0.000971
    10 O       -0.708494       -0.000000       -0.042578       -0.042578
    11 H        0.320409       -0.000000       -0.000726       -0.000726
    12 H        0.331238        0.000000       -0.004715       -0.004715
    13 O       -0.821563       -0.000001       -0.165829       -0.165830
    14 H        0.314268        0.000011       -0.054740       -0.054728
    15 H        0.281782       -0.000000       -0.003301       -0.003302
    16 O       -0.680980       -0.000000       -0.019237       -0.019237
    17 H        0.343706        0.000000       -0.000474       -0.000473
    18 H        0.319328        0.000000       -0.000696       -0.000696
    19 O       -0.680011        0.000000       -0.022677       -0.022677
    20 H        0.265475       -0.000000       -0.000603       -0.000603
    21 H        0.385700        0.000001       -0.001161       -0.001160
    --------------------------------------------------------------------
    Sum:       -0.000000        1.000000       -1.000000       -0.000000
    
    Multipole moment analysis of the density matrix
      Molecular charge:                      -0.000000
      Number of electrons:                   70.000000
        Center of electronic charge [Ang]: [  0.008120,   0.002115,  -0.005808]
      Total nuclear charge:                  70.000000
        Center of nuclear charge [Ang]:    [  0.006283,   0.002283,  -0.023770]
      Dipole moment [D]:                     6.071031
        Cartesian components [D]:          [ -0.617358,   0.056458,  -6.039296]
      RMS size of the density [Ang]:         3.033813
        Cartesian components [Ang]:        [  1.843531,   2.043739,   1.276145]
    
    Exciton analysis of the difference density matrix
      <r_h> [Ang]:                  [ -0.225548,  -0.184092,   0.174266]
      <r_e> [Ang]:                  [  0.298553,   0.020835,  -0.004624]
      |<r_e - r_h>| [Ang]:            0.590491
      Hole size [Ang]:                0.122786
        Cartesian components [Ang]: [  0.070886,   0.070892,   0.070894]
      Electron size [Ang]:            1.897347
        Cartesian components [Ang]: [  1.384173,   1.030251,   0.789033]

  Singlet 4 :
  -------------------------
    NOs
      Occupation of frontier NOs:
         0.0000   1.0000   1.0000   2.0000
      Number of electrons: 70.000000
      Number of unpaired electrons: n_u =  2.00000, n_u,nl =  2.00000
      NO participation ratio (PR_NO):  2.000000
    
    NDOs
      Leading detachment eigenvalues:
        -1.0000  -0.0000
      Leading attachment eigenvalues:
         1.0000   0.0000
      Number of detached / attached electrons: p_D =  1.0000, p_A =  1.0000
      Number of involved orbitals: PR_D =  1.000000, PR_A =  1.000000
    
    Mulliken Population Analysis (State/Difference DM)
    Atom      Charge (e)              h+              e-           Del q
    --------------------------------------------------------------------
     1 O        0.217236        0.990050       -0.055783        0.934267
     2 O       -0.677921       -0.000004       -0.007027       -0.007031
     3 H        0.359697        0.000000       -0.000381       -0.000381
     4 H        0.354860        0.000001       -0.000275       -0.000274
     5 H        0.324996        0.003899       -0.009844       -0.005945
     6 H        0.365999        0.006042       -0.003065        0.002977
     7 O       -0.988538        0.000001       -0.314218       -0.314217
     8 H        0.340298       -0.000001       -0.041423       -0.041424
     9 H        0.274299        0.000001       -0.009462       -0.009462
    10 O       -1.124609       -0.000000       -0.458693       -0.458693
    11 H        0.302379       -0.000000       -0.018756       -0.018756
    12 H        0.310822        0.000000       -0.025132       -0.025131
    13 O       -0.666565       -0.000001       -0.010831       -0.010832
    14 H        0.362813        0.000011       -0.006195       -0.006183
    15 H        0.284249       -0.000000       -0.000834       -0.000835
    16 O       -0.692758       -0.000000       -0.031015       -0.031015
    17 H        0.343609        0.000000       -0.000571       -0.000571
    18 H        0.318586        0.000000       -0.001439       -0.001439
    19 O       -0.662209        0.000000       -0.004875       -0.004875
    20 H        0.266024       -0.000000       -0.000055       -0.000055
    21 H        0.386735        0.000001       -0.000126       -0.000125
    --------------------------------------------------------------------
    Sum:       -0.000000        1.000000       -1.000000       -0.000000
    
    Multipole moment analysis of the density matrix
      Molecular charge:                      -0.000000
      Number of electrons:                   70.000000
        Center of electronic charge [Ang]: [  0.016513,  -0.031457,  -0.006505]
      Total nuclear charge:                  70.000000
        Center of nuclear charge [Ang]:    [  0.006283,   0.002283,  -0.023770]
      Dipole moment [D]:                     13.199115
        Cartesian components [D]:          [ -3.439544,  11.344154,  -5.804853]
      RMS size of the density [Ang]:         3.049131
        Cartesian components [Ang]:        [  1.845855,   2.065127,   1.274859]
    
    Exciton analysis of the difference density matrix
      <r_h> [Ang]:                  [ -0.225548,  -0.184092,   0.174266]
      <r_e> [Ang]:                  [  0.886117,  -2.329200,  -0.053434]
      |<r_e - r_h>| [Ang]:            2.426754
      Hole size [Ang]:                0.122786
        Cartesian components [Ang]: [  0.070886,   0.070892,   0.070894]
      Electron size [Ang]:            2.020519
        Cartesian components [Ang]: [  1.354487,   1.362797,   0.625018]

  Singlet 5 :
  -------------------------
    NOs
      Occupation of frontier NOs:
         0.0000   1.0000   1.0000   2.0000
      Number of electrons: 70.000000
      Number of unpaired electrons: n_u =  2.00000, n_u,nl =  2.00000
      NO participation ratio (PR_NO):  2.000000
    
    NDOs
      Leading detachment eigenvalues:
        -1.0000  -0.0000
      Leading attachment eigenvalues:
         1.0000   0.0000
      Number of detached / attached electrons: p_D =  1.0000, p_A =  1.0000
      Number of involved orbitals: PR_D =  1.000000, PR_A =  1.000000
    
    Mulliken Population Analysis (State/Difference DM)
    Atom      Charge (e)              h+              e-           Del q
    --------------------------------------------------------------------
     1 O        0.254807        0.990050       -0.018212        0.971838
     2 O       -0.674093       -0.000004       -0.003199       -0.003203
     3 H        0.359833        0.000000       -0.000244       -0.000244
     4 H        0.355017        0.000001       -0.000118       -0.000117
     5 H        0.333165        0.003899       -0.001675        0.002223
     6 H        0.368420        0.006042       -0.000644        0.005398
     7 O       -0.685945        0.000001       -0.011625       -0.011624
     8 H        0.380341       -0.000001       -0.001380       -0.001381
     9 H        0.283347        0.000001       -0.000414       -0.000414
    10 O       -0.674440       -0.000000       -0.008524       -0.008524
    11 H        0.320441       -0.000000       -0.000693       -0.000693
    12 H        0.335203        0.000000       -0.000750       -0.000750
    13 O       -0.702002       -0.000001       -0.046268       -0.046269
    14 H        0.365261        0.000011       -0.003747       -0.003736
    15 H        0.284591       -0.000000       -0.000492       -0.000493
    16 O       -1.527025       -0.000000       -0.865282       -0.865282
    17 H        0.331446        0.000000       -0.012734       -0.012734
    18 H        0.299724        0.000000       -0.020301       -0.020301
    19 O       -0.660944        0.000000       -0.003611       -0.003611
    20 H        0.266042       -0.000000       -0.000036       -0.000036
    21 H        0.386812        0.000001       -0.000049       -0.000048
    --------------------------------------------------------------------
    Sum:        0.000000        1.000000       -1.000000        0.000000
    
    Multipole moment analysis of the density matrix
      Molecular charge:                      0.000000
      Number of electrons:                   70.000000
        Center of electronic charge [Ang]: [  0.010046,   0.029903,   0.025872]
      Total nuclear charge:                  70.000000
        Center of nuclear charge [Ang]:    [  0.006283,   0.002283,  -0.023770]
      Dipole moment [D]:                     19.142168
        Cartesian components [D]:          [ -1.265083,  -9.286473, -16.690823]
      RMS size of the density [Ang]:         3.050632
        Cartesian components [Ang]:        [  1.838068,   2.056680,   1.303046]
    
    Exciton analysis of the difference density matrix
      <r_h> [Ang]:                  [ -0.225548,  -0.184092,   0.174266]
      <r_e> [Ang]:                  [  0.433406,   1.965980,   2.212964]
      |<r_e - r_h>| [Ang]:            3.035344
      Hole size [Ang]:                0.122786
        Cartesian components [Ang]: [  0.070886,   0.070892,   0.070894]
      Electron size [Ang]:            1.418434
        Cartesian components [Ang]: [  0.641804,   0.986558,   0.791673]

  Singlet 6 :
  -------------------------
    NOs
      Occupation of frontier NOs:
         0.0000   1.0000   1.0000   2.0000
      Number of electrons: 70.000000
      Number of unpaired electrons: n_u =  2.00000, n_u,nl =  2.00000
      NO participation ratio (PR_NO):  2.000000
    
    NDOs
      Leading detachment eigenvalues:
        -1.0000  -0.0000
      Leading attachment eigenvalues:
         1.0000   0.0000
      Number of detached / attached electrons: p_D =  1.0000, p_A =  1.0000
      Number of involved orbitals: PR_D =  1.000000, PR_A =  1.000000
    
    Mulliken Population Analysis (State/Difference DM)
    Atom      Charge (e)              h+              e-           Del q
    --------------------------------------------------------------------
     1 O        0.271302        0.990050       -0.001717        0.988334
     2 O       -0.671339       -0.000004       -0.000445       -0.000449
     3 H        0.359949        0.000000       -0.000129       -0.000128
     4 H        0.355103        0.000001       -0.000032       -0.000031
     5 H        0.334571        0.003899       -0.000270        0.003629
     6 H        0.368707        0.006042       -0.000357        0.005685
     7 O       -0.674996        0.000001       -0.000676       -0.000675
     8 H        0.381694       -0.000001       -0.000027       -0.000028
     9 H        0.283728        0.000001       -0.000033       -0.000033
    10 O       -0.666511       -0.000000       -0.000594       -0.000595
    11 H        0.321085       -0.000000       -0.000050       -0.000050
    12 H        0.335909        0.000000       -0.000045       -0.000045
    13 O       -0.660629       -0.000001       -0.004896       -0.004897
    14 H        0.368190        0.000011       -0.000817       -0.000806
    15 H        0.284395       -0.000000       -0.000688       -0.000688
    16 O       -1.623458       -0.000000       -0.961715       -0.961715
    17 H        0.332810        0.000000       -0.011370       -0.011370
    18 H        0.304385        0.000000       -0.015640       -0.015640
    19 O       -0.657756        0.000000       -0.000423       -0.000423
    20 H        0.266013       -0.000000       -0.000066       -0.000066
    21 H        0.386850        0.000001       -0.000011       -0.000010
    --------------------------------------------------------------------
    Sum:       -0.000000        1.000000       -1.000000       -0.000000
    
    Multipole moment analysis of the density matrix
      Molecular charge:                      -0.000000
      Number of electrons:                   70.000000
        Center of electronic charge [Ang]: [  0.009252,   0.033207,   0.028253]
      Total nuclear charge:                  70.000000
        Center of nuclear charge [Ang]:    [  0.006283,   0.002283,  -0.023770]
      Dipole moment [D]:                     20.372887
        Cartesian components [D]:          [ -0.998208, -10.397458, -17.491454]
      RMS size of the density [Ang]:         3.050967
        Cartesian components [Ang]:        [  1.836770,   2.057299,   1.304683]
    
    Exciton analysis of the difference density matrix
      <r_h> [Ang]:                  [ -0.225548,  -0.184092,   0.174266]
      <r_e> [Ang]:                  [  0.377844,   2.197281,   2.379650]
      |<r_e - r_h>| [Ang]:            3.301323
      Hole size [Ang]:                0.122786
        Cartesian components [Ang]: [  0.070886,   0.070892,   0.070894]
      Electron size [Ang]:            0.703025
        Cartesian components [Ang]: [  0.349117,   0.450926,   0.411129]

  Singlet 7 :
  -------------------------
    NOs
      Occupation of frontier NOs:
         0.0000   1.0000   1.0000   2.0000
      Number of electrons: 70.000000
      Number of unpaired electrons: n_u =  2.00000, n_u,nl =  2.00000
      NO participation ratio (PR_NO):  2.000000
    
    NDOs
      Leading detachment eigenvalues:
        -1.0000  -0.0000
      Leading attachment eigenvalues:
         1.0000   0.0000
      Number of detached / attached electrons: p_D =  1.0000, p_A =  1.0000
      Number of involved orbitals: PR_D =  1.000000, PR_A =  1.000000
    
    Mulliken Population Analysis (State/Difference DM)
    Atom      Charge (e)              h+              e-           Del q
    --------------------------------------------------------------------
     1 O        0.270078        0.990050       -0.002941        0.987109
     2 O       -0.680211       -0.000004       -0.009317       -0.009321
     3 H        0.355899        0.000000       -0.004179       -0.004179
     4 H        0.353709        0.000001       -0.001425       -0.001425
     5 H        0.334125        0.003899       -0.000716        0.003183
     6 H        0.368690        0.006042       -0.000373        0.005669
     7 O       -0.678061        0.000001       -0.003741       -0.003740
     8 H        0.380434       -0.000001       -0.001287       -0.001288
     9 H        0.283335        0.000001       -0.000426       -0.000425
    10 O       -0.688244       -0.000000       -0.022328       -0.022328
    11 H        0.319346       -0.000000       -0.001788       -0.001788
    12 H        0.333214        0.000000       -0.002740       -0.002739
    13 O       -1.486334       -0.000001       -0.830600       -0.830601
    14 H        0.357449        0.000011       -0.011559       -0.011548
    15 H        0.276273       -0.000000       -0.008810       -0.008811
    16 O       -0.700807       -0.000000       -0.039064       -0.039064
    17 H        0.343606        0.000000       -0.000574       -0.000574
    18 H        0.319052        0.000000       -0.000973       -0.000973
    19 O       -0.713311        0.000000       -0.055977       -0.055977
    20 H        0.265304       -0.000000       -0.000774       -0.000774
    21 H        0.386453        0.000001       -0.000408       -0.000407
    --------------------------------------------------------------------
    Sum:        0.000000        1.000000       -1.000000        0.000000
    
    Multipole moment analysis of the density matrix
      Molecular charge:                      0.000000
      Number of electrons:                   70.000000
        Center of electronic charge [Ang]: [  0.031915,   0.010448,  -0.001073]
      Total nuclear charge:                  70.000000
        Center of nuclear charge [Ang]:    [  0.006283,   0.002283,  -0.023770]
      Dipole moment [D]:                     11.834081
        Cartesian components [D]:          [ -8.618064,  -2.745452,  -7.631314]
      RMS size of the density [Ang]:         3.042888
        Cartesian components [Ang]:        [  1.858798,   2.043622,   1.275791]
    
    Exciton analysis of the difference density matrix
      <r_h> [Ang]:                  [ -0.225548,  -0.184092,   0.174266]
      <r_e> [Ang]:                  [  1.964255,   0.604176,   0.326825]
      |<r_e - r_h>| [Ang]:            2.332355
      Hole size [Ang]:                0.122786
        Cartesian components [Ang]: [  0.070886,   0.070892,   0.070894]
      Electron size [Ang]:            1.814153
        Cartesian components [Ang]: [  1.473142,   0.818993,   0.671010]

  Singlet 8 :
  -------------------------
    NOs
      Occupation of frontier NOs:
         0.0000   1.0000   1.0000   2.0000
      Number of electrons: 70.000000
      Number of unpaired electrons: n_u =  2.00000, n_u,nl =  2.00000
      NO participation ratio (PR_NO):  2.000000
    
    NDOs
      Leading detachment eigenvalues:
        -1.0000  -0.0000
      Leading attachment eigenvalues:
         1.0000   0.0000
      Number of detached / attached electrons: p_D =  1.0000, p_A =  1.0000
      Number of involved orbitals: PR_D =  1.000000, PR_A =  1.000000
    
    Mulliken Population Analysis (State/Difference DM)
    Atom      Charge (e)              h+              e-           Del q
    --------------------------------------------------------------------
     1 O        0.257950        0.990050       -0.015069        0.974981
     2 O       -0.696074       -0.000004       -0.025180       -0.025184
     3 H        0.356983        0.000000       -0.003094       -0.003094
     4 H        0.343441        0.000001       -0.011693       -0.011693
     5 H        0.333994        0.003899       -0.000846        0.003053
     6 H        0.368003        0.006042       -0.001061        0.004981
     7 O       -0.674369        0.000001       -0.000048       -0.000048
     8 H        0.381676       -0.000001       -0.000045       -0.000046
     9 H        0.283757        0.000001       -0.000004       -0.000003
    10 O       -0.667856       -0.000000       -0.001940       -0.001940
    11 H        0.320866       -0.000000       -0.000268       -0.000268
    12 H        0.335597        0.000000       -0.000356       -0.000356
    13 O       -0.716738       -0.000001       -0.061005       -0.061006
    14 H        0.366534        0.000011       -0.002474       -0.002463
    15 H        0.284918       -0.000000       -0.000165       -0.000166
    16 O       -0.668417       -0.000000       -0.006674       -0.006674
    17 H        0.344094        0.000000       -0.000087       -0.000086
    18 H        0.319863        0.000000       -0.000161       -0.000161
    19 O       -1.508044        0.000000       -0.850711       -0.850711
    20 H        0.253262       -0.000000       -0.012816       -0.012816
    21 H        0.380559        0.000001       -0.006302       -0.006301
    --------------------------------------------------------------------
    Sum:       -0.000000        1.000000       -1.000000       -0.000000
    
    Multipole moment analysis of the density matrix
      Molecular charge:                      -0.000000
      Number of electrons:                   70.000000
        Center of electronic charge [Ang]: [ -0.035280,   0.029154,  -0.014665]
      Total nuclear charge:                  70.000000
        Center of nuclear charge [Ang]:    [  0.006283,   0.002283,  -0.023770]
      Dipole moment [D]:                     16.920062
        Cartesian components [D]:          [ 13.974555,  -9.034839,  -3.061370]
      RMS size of the density [Ang]:         3.059383
        Cartesian components [Ang]:        [  1.873873,   2.053955,   1.276594]
    
    Exciton analysis of the difference density matrix
      <r_h> [Ang]:                  [ -0.225548,  -0.184092,   0.174266]
      <r_e> [Ang]:                  [ -2.739400,   1.913591,  -0.624611]
      |<r_e - r_h>| [Ang]:            3.370153
      Hole size [Ang]:                0.122786
        Cartesian components [Ang]: [  0.070886,   0.070892,   0.070894]
      Electron size [Ang]:            1.787135
        Cartesian components [Ang]: [  1.574416,   0.624197,   0.570476]

  Singlet 9 :
  -------------------------
    NOs
      Occupation of frontier NOs:
         0.0000   1.0000   1.0000   2.0000
[...]
1097  H 11  s       -0.00088   0.00125   0.00357  -0.00090
1098  H 11  s       -0.00211  -0.00332   0.00315   0.00385
1099  H 11  s       -0.01620   0.06039   0.18961  -0.01250
1100  H 11  s        0.10490  -0.05004   0.03889  -0.02319
1101  H 11  s       -0.01198  -0.00415   0.39603  -0.00311
1102  H 11  px       0.00041  -0.00040  -0.00101   0.00019
1103  H 11  py       0.00038  -0.00047  -0.00101   0.00011
1104  H 11  pz       0.00042  -0.00074  -0.00127   0.00027
1105  H 11  px      -0.00070   0.00059   0.00075   0.00044
1106  H 11  py      -0.00158   0.00099   0.00307   0.00054
1107  H 11  pz      -0.00132   0.00166   0.00247   0.00046
1108  H 11  px       0.00437  -0.00041   0.01504  -0.00269
1109  H 11  py       0.00396   0.00732   0.01818   0.00341
1110  H 11  pz       0.00917   0.00573   0.01308  -0.00274
1111  H 11  px      -0.00157  -0.00601   0.02908  -0.01922
1112  H 11  py       0.01554   0.01527   0.02216   0.00279
1113  H 11  pz       0.01608   0.03072   0.02735  -0.02464
1114  H 11  d 1     -0.00007  -0.00002  -0.00017   0.00002
1115  H 11  d 2      0.00002  -0.00040  -0.00031   0.00021
1116  H 11  d 3     -0.00008  -0.00032  -0.00028   0.00016
1117  H 11  d 4      0.00004  -0.00004   0.00010   0.00018
1118  H 11  d 5     -0.00027   0.00018   0.00026   0.00006
1119  H 11  d 1     -0.00031   0.00141   0.00405  -0.00005
1120  H 11  d 2     -0.00097   0.00434   0.00556  -0.00108
1121  H 11  d 3      0.00058   0.00225   0.00160  -0.00119
1122  H 11  d 4     -0.00006   0.00138   0.00226  -0.00118
1123  H 11  d 5      0.00186  -0.00184  -0.00226  -0.00053
1124  H 11  d 1      0.00306   0.00055  -0.00265  -0.00303
1125  H 11  d 2      0.00800   0.00296  -0.00672  -0.00058
1126  H 11  d 3      0.00578   0.00114  -0.01131  -0.00402
1127  H 11  d 4      0.00484   0.00194   0.00219  -0.00926
1128  H 11  d 5     -0.00408  -0.00291   0.00391  -0.00544
1129  H 11  f 1     -0.00009   0.00007   0.00027   0.00002
1130  H 11  f 2     -0.00017   0.00029   0.00076  -0.00007
1131  H 11  f 3     -0.00014   0.00015   0.00039   0.00000
1132  H 11  f 4      0.00005  -0.00007  -0.00023  -0.00005
1133  H 11  f 5     -0.00002   0.00014   0.00037  -0.00003
1134  H 11  f 6      0.00004  -0.00008  -0.00007   0.00008
1135  H 11  f 7      0.00016  -0.00017  -0.00035   0.00001
1136  H 11  f 1      0.00054  -0.00071  -0.00098  -0.00101
1137  H 11  f 2      0.00123   0.00075  -0.00172  -0.00120
1138  H 11  f 3      0.00145   0.00175  -0.00113  -0.00116
1139  H 11  f 4      0.00039   0.00029  -0.00071   0.00029
1140  H 11  f 5      0.00132   0.00077  -0.00206  -0.00177
1141  H 11  f 6      0.00021  -0.00135  -0.00056  -0.00166
1142  H 11  f 7     -0.00025  -0.00064   0.00006  -0.00048
1143  H 11  g 1      0.00003  -0.00008  -0.00008  -0.00007
1144  H 11  g 2      0.00002  -0.00003  -0.00004  -0.00011
1145  H 11  g 3      0.00011   0.00014  -0.00007  -0.00015
1146  H 11  g 4      0.00003   0.00010  -0.00004  -0.00005
1147  H 11  g 5     -0.00004  -0.00005  -0.00003   0.00008
1148  H 11  g 6      0.00008   0.00007  -0.00012  -0.00005
1149  H 11  g 7      0.00004  -0.00010  -0.00008  -0.00008
1150  H 11  g 8      0.00000  -0.00015  -0.00007  -0.00004
1151  H 11  g 9      0.00003  -0.00003  -0.00003   0.00001
1152  H 12  s       -0.00198   0.00135   0.00605  -0.00036
1153  H 12  s       -0.00234   0.00163   0.00009  -0.00509
1154  H 12  s       -0.04742   0.03086   0.25896   0.06399
1155  H 12  s        0.07949  -0.03608   0.14158   0.14066
1156  H 12  s       -0.36778   0.20622   0.49744  -0.02866
1157  H 12  px      -0.00075   0.00041   0.00131  -0.00018
1158  H 12  py       0.00068  -0.00040  -0.00132   0.00007
1159  H 12  pz      -0.00021   0.00023   0.00027  -0.00000
1160  H 12  px       0.00123  -0.00036  -0.00054   0.00104
1161  H 12  py      -0.00159   0.00091   0.00210  -0.00058
1162  H 12  pz      -0.00030  -0.00039   0.00165   0.00024
1163  H 12  px      -0.00508   0.00282  -0.03547  -0.02314
1164  H 12  py       0.01282  -0.00602   0.02522   0.01913
1165  H 12  pz       0.00484  -0.00036  -0.02147  -0.01226
1166  H 12  px      -0.01447   0.00948  -0.05240  -0.04534
1167  H 12  py       0.03442  -0.00165   0.05761   0.04423
1168  H 12  pz       0.00289  -0.00458  -0.00521  -0.03229
1169  H 12  d 1     -0.00008   0.00002   0.00037   0.00007
1170  H 12  d 2     -0.00015  -0.00000   0.00006   0.00010
1171  H 12  d 3      0.00013   0.00009   0.00024   0.00010
1172  H 12  d 4      0.00010  -0.00008  -0.00023  -0.00009
1173  H 12  d 5      0.00017  -0.00012  -0.00017   0.00001
1174  H 12  d 1      0.00036   0.00011  -0.00641  -0.00234
1175  H 12  d 2      0.00084  -0.00000  -0.00213  -0.00153
1176  H 12  d 3     -0.00069  -0.00019  -0.00329  -0.00125
1177  H 12  d 4     -0.00093   0.00054   0.00333   0.00153
1178  H 12  d 5     -0.00117   0.00067   0.00125   0.00035
1179  H 12  d 1     -0.01237   0.00444  -0.00431  -0.00972
1180  H 12  d 2     -0.00123  -0.00184  -0.00596  -0.00838
1181  H 12  d 3     -0.00648   0.00425  -0.00041  -0.00135
1182  H 12  d 4     -0.00288   0.00012   0.00504   0.01010
1183  H 12  d 5     -0.00528  -0.00038   0.00011   0.00227
1184  H 12  f 1     -0.00012   0.00006   0.00067   0.00019
1185  H 12  f 2     -0.00012  -0.00000   0.00055   0.00014
1186  H 12  f 3      0.00011  -0.00008  -0.00036  -0.00011
1187  H 12  f 4     -0.00007   0.00004   0.00052   0.00009
1188  H 12  f 5     -0.00002   0.00000   0.00022   0.00011
1189  H 12  f 6      0.00009  -0.00011  -0.00027   0.00001
1190  H 12  f 7     -0.00012   0.00001   0.00040   0.00010
1191  H 12  f 1      0.00086  -0.00038  -0.00030   0.00098
1192  H 12  f 2     -0.00022   0.00019   0.00047   0.00209
1193  H 12  f 3     -0.00179   0.00103   0.00099   0.00060
1194  H 12  f 4     -0.00019  -0.00016  -0.00015   0.00150
1195  H 12  f 5      0.00125  -0.00052  -0.00026  -0.00052
1196  H 12  f 6      0.00051   0.00038   0.00088  -0.00042
1197  H 12  f 7      0.00255  -0.00080  -0.00012   0.00037
1198  H 12  g 1      0.00007  -0.00002  -0.00001  -0.00005
1199  H 12  g 2      0.00010  -0.00004  -0.00014  -0.00014
1200  H 12  g 3      0.00015  -0.00005  -0.00003  -0.00007
1201  H 12  g 4      0.00001  -0.00003   0.00009   0.00008
1202  H 12  g 5      0.00010  -0.00002   0.00001  -0.00007
1203  H 12  g 6      0.00005   0.00001  -0.00010  -0.00011
1204  H 12  g 7     -0.00001  -0.00001  -0.00001   0.00001
1205  H 12  g 8     -0.00004   0.00000  -0.00011  -0.00008
1206  H 12  g 9     -0.00013   0.00004  -0.00013  -0.00007
1207  O 7   s        0.00073  -0.00015   0.00178   0.00166
1208  O 7   s       -0.01881  -0.00699  -0.05626  -0.03535
1209  O 7   s        0.00010  -0.00161  -0.00177   0.00042
1210  O 7   s       -0.02894   0.00063  -0.04971  -0.03735
1211  O 7   s        0.01712   0.02555  -0.07360  -0.07657
1212  O 7   s       -0.01031  -0.17672  -0.66109  -0.28095
1213  O 7   px      -0.00207   0.00140  -0.00234   0.00326
1214  O 7   py      -0.00066   0.00341  -0.01207  -0.01465
1215  O 7   pz       0.01207  -0.00075   0.01672   0.02037
1216  O 7   px      -0.00440   0.00138  -0.00549   0.00580
1217  O 7   py       0.00044   0.00712  -0.01702  -0.02321
1218  O 7   pz       0.02024  -0.00172   0.02322   0.03084
1219  O 7   px       0.00277   0.01444   0.01166   0.00626
1220  O 7   py      -0.00786   0.00160  -0.04451  -0.03862
1221  O 7   pz       0.02591  -0.00658   0.04781   0.05853
1222  O 7   px       0.04629  -0.01909  -0.08817  -0.02668
1223  O 7   py      -0.01112  -0.01288  -0.06837  -0.01809
1224  O 7   pz       0.01905   0.05750   0.17325   0.10516
1225  O 7   px       0.07234  -0.04835   0.09802   0.18441
1226  O 7   py      -0.08745   0.03797  -0.14686  -0.20204
1227  O 7   pz       0.04075  -0.01159   0.13692   0.11749
1228  O 7   d 1      0.00009   0.00012   0.00028   0.00021
1229  O 7   d 2     -0.00001   0.00003   0.00005   0.00002
1230  O 7   d 3     -0.00001  -0.00004   0.00004  -0.00003
1231  O 7   d 4     -0.00003   0.00013   0.00033   0.00015
1232  O 7   d 5     -0.00000  -0.00007  -0.00021  -0.00011
1233  O 7   d 1     -0.00053  -0.00066  -0.00233  -0.00155
1234  O 7   d 2     -0.00013  -0.00057  -0.00159  -0.00054
1235  O 7   d 3     -0.00009   0.00039  -0.00005   0.00003
1236  O 7   d 4      0.00061  -0.00045  -0.00049  -0.00024
1237  O 7   d 5     -0.00027   0.00011   0.00051   0.00033
1238  O 7   d 1     -0.00095   0.00077   0.00664   0.00563
1239  O 7   d 2      0.00321   0.00178   0.01402   0.00754
1240  O 7   d 3     -0.00346  -0.00240  -0.00697  -0.00636
1241  O 7   d 4     -0.00486   0.00139   0.00257   0.00212
1242  O 7   d 5      0.00345  -0.00048   0.00128   0.00070
1243  O 7   d 1     -0.00855   0.00914   0.01227  -0.00465
1244  O 7   d 2      0.02178   0.00012   0.04922   0.03861
1245  O 7   d 3     -0.01660  -0.00094  -0.03462  -0.03913
1246  O 7   d 4     -0.02139   0.02175   0.01646  -0.01209
1247  O 7   d 5      0.02161  -0.01543  -0.00357   0.02520
1248  O 7   f 1     -0.00002   0.00000  -0.00021  -0.00019
1249  O 7   f 2     -0.00009   0.00008  -0.00011  -0.00020
1250  O 7   f 3      0.00005  -0.00002   0.00020   0.00018
1251  O 7   f 4     -0.00010   0.00001  -0.00009  -0.00015
1252  O 7   f 5     -0.00008  -0.00004  -0.00025  -0.00016
1253  O 7   f 6      0.00001   0.00004   0.00020   0.00007
1254  O 7   f 7     -0.00011  -0.00000  -0.00026  -0.00022
1255  O 7   f 1     -0.00014  -0.00027   0.00100   0.00101
1256  O 7   f 2      0.00043  -0.00039   0.00026   0.00059
1257  O 7   f 3     -0.00052   0.00027  -0.00198  -0.00186
1258  O 7   f 4      0.00071   0.00001   0.00061   0.00088
1259  O 7   f 5      0.00034   0.00010   0.00120   0.00083
1260  O 7   f 6     -0.00025  -0.00018  -0.00166  -0.00081
1261  O 7   f 7      0.00054  -0.00003   0.00104   0.00093
1262  O 7   f 1     -0.00022   0.00366   0.01324   0.00501
1263  O 7   f 2      0.00308  -0.00855  -0.00518   0.00534
1264  O 7   f 3     -0.00762  -0.00196  -0.02414  -0.02004
1265  O 7   f 4      0.00632  -0.00691   0.00212   0.01279
1266  O 7   f 5      0.00238  -0.00026   0.00537   0.00311
1267  O 7   f 6     -0.00649   0.00445  -0.00586  -0.01115
1268  O 7   f 7      0.00528  -0.00547  -0.00229   0.00889
1269  O 7   g 1     -0.00000  -0.00009  -0.00017  -0.00000
1270  O 7   g 2     -0.00002   0.00012   0.00008  -0.00008
1271  O 7   g 3      0.00009  -0.00004   0.00024   0.00024
1272  O 7   g 4     -0.00005  -0.00006  -0.00012  -0.00009
1273  O 7   g 5      0.00008  -0.00006   0.00015   0.00021
1274  O 7   g 6     -0.00002   0.00011   0.00004  -0.00011
1275  O 7   g 7     -0.00002   0.00002  -0.00000  -0.00002
1276  O 7   g 8      0.00009  -0.00008   0.00005   0.00021
1277  O 7   g 9     -0.00009  -0.00001  -0.00008  -0.00011
1278  O 7   g 1     -0.00016   0.00066   0.00176   0.00031
1279  O 7   g 2      0.00032  -0.00128  -0.00225  -0.00028
1280  O 7   g 3     -0.00078   0.00104  -0.00148  -0.00218
1281  O 7   g 4      0.00123   0.00059   0.00376   0.00339
1282  O 7   g 5     -0.00096   0.00096  -0.00094  -0.00205
1283  O 7   g 6      0.00012  -0.00117  -0.00127   0.00028
1284  O 7   g 7      0.00077  -0.00002   0.00303   0.00238
1285  O 7   g 8     -0.00091   0.00094  -0.00008  -0.00199
1286  O 7   g 9      0.00107  -0.00008   0.00095   0.00130
1287  O 7   h 1     -0.00011   0.00009   0.00004  -0.00016
1288  O 7   h 2      0.00004  -0.00010  -0.00010   0.00004
1289  O 7   h 3     -0.00005   0.00009   0.00012   0.00005
1290  O 7   h 4     -0.00001  -0.00002   0.00006   0.00003
1291  O 7   h 5     -0.00010  -0.00003  -0.00020  -0.00030
1292  O 7   h 6     -0.00002  -0.00002  -0.00008  -0.00008
1293  O 7   h 7     -0.00005   0.00010  -0.00007  -0.00010
1294  O 7   h 8     -0.00011  -0.00010  -0.00055  -0.00036
1295  O 7   h 9     -0.00002  -0.00010  -0.00011   0.00007
1296  O 7   h10     -0.00006  -0.00004   0.00005   0.00002
1297  O 7   h11      0.00014   0.00005   0.00029   0.00016
1298  H 13  s        0.00096   0.00083   0.00505   0.00310
1299  H 13  s        0.00031   0.00364   0.00348  -0.00105
1300  H 13  s        0.06310   0.04790   0.28564   0.19292
1301  H 13  s       -0.00951  -0.02016  -0.00144  -0.04420
1302  H 13  s        0.34429  -0.09110   0.95260   1.08345
1303  H 13  px      -0.00015   0.00006  -0.00030  -0.00031
1304  H 13  py       0.00061   0.00003   0.00180   0.00165
1305  H 13  pz      -0.00090  -0.00018  -0.00262  -0.00223
1306  H 13  px       0.00018  -0.00011  -0.00086  -0.00048
1307  H 13  py      -0.00086  -0.00056  -0.00410  -0.00290
1308  H 13  pz       0.00205   0.00162   0.00707   0.00486
1309  H 13  px       0.00353  -0.00027   0.02415   0.02406
1310  H 13  py      -0.00297  -0.00586  -0.02276  -0.01494
1311  H 13  pz      -0.00705   0.00822   0.01191  -0.00880
1312  H 13  px      -0.00090  -0.01100   0.00229   0.01003
1313  H 13  py      -0.00138   0.01421  -0.01513  -0.02022
1314  H 13  pz       0.00120  -0.00245   0.01579  -0.00531
1315  H 13  d 1      0.00007   0.00005   0.00034   0.00029
1316  H 13  d 2      0.00015  -0.00010   0.00029   0.00044
1317  H 13  d 3      0.00015   0.00008   0.00000   0.00014
1318  H 13  d 4     -0.00014   0.00025  -0.00024  -0.00052
1319  H 13  d 5      0.00015  -0.00007   0.00006   0.00018
1320  H 13  d 1     -0.00095  -0.00023  -0.00431  -0.00423
1321  H 13  d 2     -0.00159  -0.00134  -0.00798  -0.00553
1322  H 13  d 3     -0.00100   0.00100   0.00206  -0.00139
1323  H 13  d 4      0.00125  -0.00107   0.00435   0.00539
1324  H 13  d 5     -0.00118  -0.00027  -0.00265  -0.00234
1325  H 13  d 1      0.00063   0.00517  -0.00237  -0.00791
1326  H 13  d 2      0.00479   0.00473   0.01077   0.00748
1327  H 13  d 3     -0.00492   0.00179  -0.01240  -0.01908
1328  H 13  d 4     -0.00043  -0.00365   0.00487   0.00834
1329  H 13  d 5      0.00029   0.00261   0.00268  -0.00225
1330  H 13  f 1      0.00001  -0.00004  -0.00009  -0.00009
1331  H 13  f 2     -0.00018  -0.00009  -0.00071  -0.00058
1332  H 13  f 3     -0.00014  -0.00019  -0.00084  -0.00047
1333  H 13  f 4     -0.00013   0.00001  -0.00014  -0.00023
1334  H 13  f 5     -0.00003   0.00008   0.00025   0.00007
1335  H 13  f 6     -0.00010  -0.00027  -0.00068  -0.00028
1336  H 13  f 7     -0.00014  -0.00005  -0.00042  -0.00037
1337  H 13  f 1      0.00040   0.00020   0.00058   0.00075
1338  H 13  f 2      0.00008   0.00170  -0.00075  -0.00261
1339  H 13  f 3      0.00109   0.00030   0.00249   0.00315
1340  H 13  f 4     -0.00102   0.00082  -0.00155  -0.00394
1341  H 13  f 5      0.00049  -0.00090   0.00130   0.00220
1342  H 13  f 6     -0.00014   0.00108   0.00150  -0.00008
1343  H 13  f 7      0.00022   0.00099   0.00008  -0.00115
1344  H 13  g 1      0.00002  -0.00004   0.00008   0.00014
1345  H 13  g 2      0.00004   0.00002  -0.00001  -0.00001
1346  H 13  g 3     -0.00002   0.00007  -0.00025  -0.00028
1347  H 13  g 4      0.00007  -0.00002   0.00010   0.00028
1348  H 13  g 5     -0.00009   0.00005  -0.00014  -0.00029
1349  H 13  g 6     -0.00004   0.00004   0.00004  -0.00005
1350  H 13  g 7      0.00001  -0.00001   0.00003   0.00007
1351  H 13  g 8     -0.00004   0.00014  -0.00015  -0.00031
1352  H 13  g 9      0.00003   0.00004   0.00005   0.00001
1353  H 14  s        0.00104  -0.00042   0.00217   0.00171
1354  H 14  s        0.00533   0.00333   0.01006   0.00401
1355  H 14  s       -0.03435   0.04736   0.12432   0.02343
1356  H 14  s       -0.20190   0.02044  -0.10668  -0.06134
1357  H 14  s       -0.10687   0.31837   0.09016  -0.49682
1358  H 14  px       0.00057   0.00028   0.00095   0.00009
1359  H 14  py      -0.00029  -0.00026  -0.00069  -0.00003
1360  H 14  pz      -0.00022  -0.00011  -0.00037   0.00001
1361  H 14  px      -0.00213  -0.00220  -0.00391   0.00055
1362  H 14  py       0.00138   0.00111   0.00199  -0.00011
1363  H 14  pz       0.00081   0.00173   0.00279  -0.00010
1364  H 14  px       0.02662  -0.00162  -0.00236  -0.01127
1365  H 14  py      -0.02447   0.00654   0.00113  -0.00619
1366  H 14  pz      -0.00182  -0.00895   0.00544   0.01713
1367  H 14  px       0.01453   0.00181  -0.00790   0.00409
1368  H 14  py      -0.03792   0.03040   0.03247  -0.02969
1369  H 14  pz       0.01105  -0.02878   0.00156   0.00206
1370  H 14  d 1     -0.00027   0.00019   0.00011  -0.00026
1371  H 14  d 2     -0.00003  -0.00007  -0.00023  -0.00003
1372  H 14  d 3     -0.00004  -0.00014  -0.00029  -0.00004
1373  H 14  d 4      0.00020  -0.00005   0.00071   0.00034
1374  H 14  d 5     -0.00021  -0.00021  -0.00048  -0.00021
1375  H 14  d 1      0.00307  -0.00230  -0.00253   0.00139
1376  H 14  d 2      0.00023   0.00042   0.00285   0.00137
1377  H 14  d 3      0.00135  -0.00046   0.00055   0.00078
1378  H 14  d 4     -0.00157   0.00030  -0.00677  -0.00464
1379  H 14  d 5      0.00119   0.00113   0.00444   0.00300
1380  H 14  d 1      0.01737   0.00431   0.01807   0.00839
1381  H 14  d 2     -0.00385  -0.01118  -0.01315  -0.00089
1382  H 14  d 3      0.01302  -0.00296   0.01164   0.01090
1383  H 14  d 4      0.00057   0.02079   0.02352  -0.00795
1384  H 14  d 5     -0.00191  -0.01660  -0.02663   0.00598
1385  H 14  f 1     -0.00011   0.00010   0.00038   0.00024
1386  H 14  f 2      0.00000  -0.00009  -0.00043  -0.00030
1387  H 14  f 3      0.00003  -0.00001  -0.00002  -0.00001
1388  H 14  f 4     -0.00001  -0.00007  -0.00029  -0.00032
1389  H 14  f 5      0.00005   0.00012   0.00028   0.00013
1390  H 14  f 6     -0.00007   0.00000  -0.00006   0.00011
1391  H 14  f 7     -0.00007  -0.00000   0.00000  -0.00010
1392  H 14  f 1     -0.00221  -0.00098  -0.00360  -0.00141
1393  H 14  f 2      0.00009   0.00272   0.00158  -0.00101
1394  H 14  f 3      0.00217  -0.00108   0.00180   0.00267
1395  H 14  f 4     -0.00020   0.00223   0.00065  -0.00101
1396  H 14  f 5     -0.00301   0.00067  -0.00358  -0.00313
1397  H 14  f 6      0.00182  -0.00186   0.00181   0.00302
1398  H 14  f 7     -0.00247   0.00191  -0.00080  -0.00338
1399  H 14  g 1      0.00004   0.00014   0.00021  -0.00007
1400  H 14  g 2      0.00004  -0.00024  -0.00006   0.00018
1401  H 14  g 3     -0.00025   0.00014  -0.00022  -0.00031
1402  H 14  g 4      0.00006   0.00009   0.00010   0.00002
1403  H 14  g 5     -0.00018   0.00013  -0.00015  -0.00023
1404  H 14  g 6      0.00004  -0.00017  -0.00000   0.00019
1405  H 14  g 7      0.00004  -0.00002   0.00005  -0.00001
1406  H 14  g 8     -0.00012   0.00002  -0.00005  -0.00011
1407  H 14  g 9      0.00028  -0.00009   0.00018   0.00029

 -----------------------------------------------------------------
                    Cartesian Multipole Moments
 -----------------------------------------------------------------
    Charge (ESU x 10^10)
                 0.0000
    Dipole Moment (Debye)
         X       1.9000      Y       1.0408      Z      -6.8985
       Tot       7.2307
    Quadrupole Moments (Debye-Ang)
        XX     -51.5064     XY       0.4937     YY     -62.8505
        XZ       6.6771     YZ     -15.1438     ZZ     -38.4741
    Octopole Moments (Debye-Ang^2)
       XXX      40.9045    XXY     -25.3586    XYY      17.9201
       YYY      34.4796    XXZ     -16.5467    XYZ      -4.0431
       YYZ     -36.9969    XZZ     -10.7203    YZZ       1.6440
       ZZZ     -42.6305
    Hexadecapole Moments (Debye-Ang^3)
      XXXX   -1069.4395   XXXY     168.3838   XXYY    -287.3123
      XYYY      79.4632   YYYY   -1447.9563   XXXZ     -82.4332
      XXYZ     -68.9401   XYYZ      23.6887   YYYZ    -148.8114
      XXZZ    -196.3683   XYZZ      49.9228   YYZZ    -305.0421
      XZZZ     -39.8591   YZZZ    -130.1048   ZZZZ    -400.9072
 -----------------------------------------------------------------
 Total job time:  168057.22s(wall), 332500.97s(cpu) 
 Sun Dec 22 11:22:08 2024

        *************************************************************
        *                                                           *
        *  Thank you very much for using Q-Chem.  Have a nice day.  *
        *                                                           *
        *************************************************************


