                  Welcome to Q-Chem
     A Quantum Leap Into The Future Of Chemistry


 Q-Chem 6.2 (devel), Q-Chem, Inc., Pleasanton, CA (2024)

 E. Epifanovsky,  A. T. B. Gilbert,  Xintian Feng,  Joonho Lee,  Yuezhi Mao,  
 N. Mardirossian,  P. Pokhilko,  A. White,  M. Wormit,  M. P. Coons,  
 A. L. Dempwolff,  Zhengting Gan,  D. Hait,  P. R. Horn,  L. D. Jacobson,  
 I. Kaliman,  J. Kussmann,  A. W. Lange,  Ka Un Lao,  D. S. Levine,  Jie Liu,  
 S. C. McKenzie,  A. F. Morrison,  K. D. Nanda,  F. Plasser,  D. R. Rehn,  
 M. L. Vidal,  Zhi-Qiang You,  Ying Zhu,  Huseyin Aksu,  B. Alam,  
 B. Albrecht,  A. Aldossary,  E. Alguire,  J. H. Andersen,  
 J. E. Arias-Martinez,  V. Athavale,  D. Barton,  K. Begam,  A. Behn,  
 N. Bellonzi,  Y. A. Bernard,  E. J. Berquist,  H. Burton,  A. Carreras,  
 K. Carter-Fenk,  Mathew Chow,  Romit Chakraborty,  Chandrima Chakravarty,  
 Junhan Chen,  A. D. Chien,  K. D. Closser,  V. Cofer-Shabica,  L. Cunha,  
 S. Dasgupta,  Jia Deng,  Joseph Dickinson,  M. de Wergifosse,  
 M. Diedenhofen,  Hainam Do,  Wenjie Dou,  S. Ehlert,  Po-Tung Fang,  
 S. Fatehi,  Qingguo Feng,  Jonathan Fetherolf,  T. Friedhoff,  
 Thomas Froitzheim,  Sarai Folkestad,  B. Ganoe,  J. Gayvert,  Qinghui Ge,  
 G. Gidofalvi,  M. Gimferrer,  M. Goldey,  Montgomery Gray,  J. Gomes,  
 C. Gonzalez-Espinoza,  S. Gulania,  A. Gunina,  J. A. Gyamfi,  
 M. W. D. Hanson-Heine,  P. H. P. Harbach,  A. W. Hauser,  M. F. Herbst,  
 M. Hernandez Vera,  M. Hodecker,  Z. C. Holden,  S. Houck,  Xunkun Huang,  
 Kerwin Hui,  B. C. Huynh,  K. Ikeda,  M. Ivanov,  Nayanthara K. Jayadev,  
 Hyunjun Ji,  Zuxin Jin,  Hanjie Jiang,  Subrata Jana,  B. Kaduk,  
 S. Kaehler,  R. Kang,  K. Khistyaev,  Jaehoon Kim,  Yongbin Kim,  
 P. Klunzinger,  Z. Koczor-Benda,  Joong Hoon Koh,  D. Kosenkov,  
 Saikiran Kotaru,  L. Koulias,  T. Kowalczyk,  C. M. Krauter,  K. Kue,  
 A. Kunitsa,  T. Kus,  A. Landau,  K. V. Lawler,  D. Lefrancois,  S. Lehtola,  
 Rain Li,  Shaozhi Li,  Tao E. Li,  Yi-Pei Li,  Jiashu Liang,  M. Liebenthal,  
 Hung-Hsuan Lin,  You-Sheng Lin,  Fenglai Liu,  Kuan-Yu Liu,  Xiao Liu,  
 M. Loipersberger,  A. Luenser,  C. Malbon,  Aniket Mandal,  Manisha,  
 A. Manjanath,  P. Manohar,  E. Mansoor,  S. F. Manzer,  Shan-Ping Mao,  
 A. V. Marenich,  T. Markovich,  S. Mason,  F. Matz,  S. A. Maurer,  
 Samuel May,  Alexandra McIsaac,  P. F. McLaughlin,  M. F. S. J. Menger,  
 J.-M. Mewes,  S. A. Mewes,  P. Morgante,  Mohammad Mostafanejad,  
 Madhubani Mukherjee,  J. W. Mullinax,  Quyen Nguyen,  Avik Kumar Ojha,  
 K. J. Oosterbaan,  Eno Paenurk,  Xiaoliang Pan,  G. Paran,  V. Parravicini,  
 Alexander C. Paul,  Suranjan K. Paul,  F. Pavosevic,  Zheng Pei,  S. Prager,  
 E. I. Proynov,  E. Ramos,  B. Rana,  A. E. Rask,  A. Rettig,  R. M. Richard,  
 F. Rob,  E. Rossomme,  T. Scheele,  M. Scheurer,  M. Schneider,  
 P. E. Schneider,  Tim K. Schramm,  N. Sergueev,  S. M. Sharada,  
 Hengyuan Shen,  W. Skomorowski,  D. W. Small,  C. J. Stein,  
 Alistair J. Sterling,  Yingli Su,  Yu-Chuan Su,  E. J. Sundstrom,  
 J. Talbot,  Zhen Tao,  J. Thirman,  Hung-Yi Tsai,  T. Tsuchimochi,  
 N. M. Tubman,  C. Utku,  S. P. Veccham,  O. Vydrov,  Rahel Weiss,  
 J. Wenzel,  Jonathan Wong,  J. Witte,  H. Wu,  Yanze Wu,  A. Yamada,  
 Chou-Hsun Yang,  Kun Yao,  S. Yeganeh,  S. R. Yost,  Qi Yu,  A. Zech,  
 F. Zeller,  Chongxiao Zhao,  Igor Ying Zhang,  Xing Zhang,  Yu Zhang,  
 D. Zuev,  A. Aspuru-Guzik,  A. T. Bell,  N. A. Besley,  K. B. Bravaya,  
 B. R. Brooks,  D. Casanova,  Jeng-Da Chai,  Hsing-Ta Chen,  S. Coriani,  
 C. J. Cramer,  A. E. DePrince, III,  R. A. DiStasio Jr.,  A. Dreuw,  
 B. D. Dunietz,  T. R. Furlani,  W. A. Goddard III,  S. Grimme,  
 S. Hammes-Schiffer,  T. Head-Gordon,  W. J. Hehre,  Chao-Ping Hsu,  
 T.-C. Jagau,  Yousung Jung,  A. Klamt,  Jing Kong,  D. S. Lambrecht,  
 Xiangyuan Li,  WanZhen Liang,  N. J. Mayhall,  C. W. McCurdy,  J. B. Neaton,  
 T. Neudecker,  C. Ochsenfeld,  J. A. Parkhill,  R. Peverati,  
 V. A. Rassolov,  Haisheng Ren,  Yihan Shao,  L. V. Slipchenko,  
 R. P. Steele,  J. E. Subotnik,  A. J. W. Thom,  A. Tkatchenko,  
 D. G. Truhlar,  T. Van Voorhis,  Fan Wang,  T. A. Wesolowski,  K. B. Whaley,  
 H. L. Woodcock III,  P. M. Zimmerman,  S. Faraji,  P. M. W. Gill,  
 M. Head-Gordon,  J. M. Herbert,  A. I. Krylov

 Contributors to earlier versions of Q-Chem not listed above: 
 R. D. Adamson,  B. Austin,  R. Baer,  J. Baker,  G. J. O. Beran,  
 K. Brandhorst,  S. T. Brown,  E. F. C. Byrd,  Arup K. Chakraborty,  
 G. K. L. Chan,  Chun-Min Chang,  Yunqing Chen,  C.-L. Cheng,  
 Siu Hung Chien,  D. M. Chipman,  D. L. Crittenden,  H. Dachsel,  
 R. J. Doerksen,  A. D. Dutoi,  R. G. Edgar,  J. Fosso-Tande,  
 L. Fusti-Molnar,  D. Ghosh,  A. Ghysels,  A. Golubeva-Zadorozhnaya,  
 J. Gonthier,  M. S. Gordon,  S. R. Gwaltney,  G. Hawkins,  J. E. Herr,  
 A. Heyden,  S. Hirata,  E. G. Hohenstein,  G. Kedziora,  F. J. Keil,  
 C. Kelley,  Jihan Kim,  R. A. King,  R. Z. Khaliullin,  P. P. Korambath,  
 W. Kurlancheek,  A. Laurent,  A. M. Lee,  M. S. Lee,  S. V. Levchenko,  
 Ching Yeh Lin,  D. Liotard,  E. Livshits,  R. C. Lochan,  I. Lotan,  
 L. A. Martinez-Martinez,  P. E. Maslen,  N. Nair,  D. P. O'Neill,  
 D. Neuhauser,  E. Neuscamman,  C. M. Oana,  R. Olivares-Amaya,  R. Olson,  
 T. M. Perrine,  B. Peters,  P. A. Pieniazek,  A. Prociuk,  Y. M. Rhee,  
 J. Ritchie,  M. A. Rohrdanz,  E. Rosta,  N. J. Russ,  H. F. Schaefer III,  
 M. W. Schmidt,  N. E. Schultz,  S. Sharma,  N. Shenvi,  C. D. Sherrill,  
 A. C. Simmonett,  A. Sodt,  T. Stein,  D. Stuck,  K. S. Thanthiriwatte,  
 V. Vanovschi,  L. Vogt,  Tao Wang,  A. Warshel,  M. A. Watson,  
 C. F. Williams,  Q. Wu,  X. Xu,  Jun Yang,  W. Zhang,  Yan Zhao

   Please cite Q-Chem as follows:
  "Software for the frontiers of quantum chemistry:
   An overview of developments in the Q-Chem 5 package"
   J. Chem. Phys. 155, 084801 (2021)
   https://doi.org/10.1063/5.0055522 (open access)

 Q-Chem 6.2.2 for Intel X86 EM64T Linux

 Parts of Q-Chem use Armadillo 9.900.5 (Nocturnal Misbehaviour).
 http://arma.sourceforge.net/

 Q-Chem begins on Tue Jan 14 15:42:05 2025  

 Host: compute-0-8.local
0

     Scratch files written to /scratch/keith/A1D1_2//
 Processing $rem in /home/keith/software/qchem/qchem_622/config/preferences:
 Processing $rem in /home/keith/.qchemrc:

 Checking the input file for inconsistencies... 	...done.

--------------------------------------------------------------
User input:
--------------------------------------------------------------
$molecule
0 1
O 0.15259 0.62040 0.72270
H 0.92389 0.87610 0.12570
H -0.23161 1.44810 1.00970
O -3.17551 2.37240 0.11370
H -2.43441 2.51760 -0.47230
H -3.93847 2.28180 -0.46430
O 1.82049 -2.37640 -0.36930
H 1.01989 -2.36140 0.12770
H 2.16489 -1.48140 -0.47430
O 2.33659 1.05170 -1.20530
H 1.99309 1.96600 -1.35130
H 2.04739 0.49790 -1.92830
O -1.10661 -1.82740 0.79370
H -0.70881 -0.90090 0.95870
H -1.27341 -2.31540 1.58770
$end

$rem
method                    b3lyp 
basis                     cc-pv5z 
mem_total                 48000
mem_static                8000
thresh                    12
scf_convergence           8
xc_grid                   000075000302
max_scf_cycles            2000
symmetry                  false
sym_ignore                true
print_orbitals true
$end
gui                       2
molden_format true
--------------------------------------------------------------
 ----------------------------------------------------------------
             Standard Nuclear Orientation (Angstroms)
    I     Atom           X                Y                Z
 ----------------------------------------------------------------
    1      O       0.1525900000     0.6204000000     0.7227000000
    2      H       0.9238900000     0.8761000000     0.1257000000
    3      H      -0.2316100000     1.4481000000     1.0097000000
    4      O      -3.1755100000     2.3724000000     0.1137000000
    5      H      -2.4344100000     2.5176000000    -0.4723000000
    6      H      -3.9384700000     2.2818000000    -0.4643000000
    7      O       1.8204900000    -2.3764000000    -0.3693000000
    8      H       1.0198900000    -2.3614000000     0.1277000000
    9      H       2.1648900000    -1.4814000000    -0.4743000000
   10      O       2.3365900000     1.0517000000    -1.2053000000
   11      H       1.9930900000     1.9660000000    -1.3513000000
   12      H       2.0473900000     0.4979000000    -1.9283000000
   13      O      -1.1066100000    -1.8274000000     0.7937000000
   14      H      -0.7088100000    -0.9009000000     0.9587000000
   15      H      -1.2734100000    -2.3154000000     1.5877000000
 ----------------------------------------------------------------
 Nuclear Repulsion Energy =         182.30883916 hartrees
 There are       25 alpha and       25 beta electrons
 Requested basis set is cc-pV5Z
 There are 255 shells and 1005 basis functions

 Total QAlloc Memory Limit  48000 MB
 Mega-Array Size      7821 MB
 MEM_STATIC part      8000 MB


                       Distance Matrix (Angstroms)
             O (  1)   H (  2)   H (  3)   O (  4)   H (  5)   H (  6)
   H (  2)  1.008313
   H (  3)  0.956591  1.563272
   O (  4)  3.810070  4.363959  3.213051
   H (  5)  3.423443  3.785539  2.862251  0.955881
   H (  6)  4.572307  5.095747  4.075358  0.961457  1.522453
   O (  7)  3.599328  3.409937  4.554070  6.909733  6.485832  7.407663
   H (  8)  3.161861  3.238924  4.105663  6.325381  6.008064  6.818732
   H (  9)  3.146383  2.730913  4.065395  6.611913  6.094716  7.170270
   O ( 10)  2.945006  1.948876  3.414529  5.819558  5.044660  6.437282
   H ( 11)  3.082135  2.124288  3.285092  5.387561  4.547489  6.005822
   H ( 12)  3.260840  2.371540  3.837781  5.912884  5.126954  6.415303
   O ( 13)  2.753607  3.446457  3.397231  4.730863  4.716443  5.146603
   H ( 14)  1.764103  2.552906  2.397524  4.184869  4.087982  4.752390
   H ( 15)  3.376481  4.141406  3.947577  5.269358  5.380466  5.696270
             O (  7)   H (  8)   H (  9)   O ( 10)   H ( 11)   H ( 12)
   H (  8)  0.942441
   H (  9)  0.964708  1.564554
   O ( 10)  3.566108  3.893564  2.642052
   H ( 11)  4.455396  4.675569  3.561350  0.987549
   H ( 12)  3.277738  3.668581  2.458770  0.955542  1.578352
   O ( 13)  3.197168  2.291444  3.525656  4.913333  5.347808  4.771165
   H ( 14)  3.215283  2.410814  3.263222  4.215448  4.566780  4.229427
   H ( 15)  3.661391  2.718996  4.095034  5.671888  6.134992  5.595054
             O ( 13)   H ( 14)
   H ( 14)  1.021701
   H ( 15)  0.946785  1.647794

 A cutoff of  1.0D-12 yielded  20824 shell pairs
 There are    279626 function pairs (    466177 Cartesian)
 Smallest overlap matrix eigenvalue = 3.59E-05

 Scale SEOQF with 1.000000e-01/1.000000e-01/1.000000e-01

 Standard Electronic Orientation quadrupole field applied
 Nucleus-field energy     =     0.0000000151 hartrees
 Guess from superposition of atomic densities
 Warning:  Energy on first SCF cycle will be non-variational
 SAD guess density has 50.000000 electrons

 -----------------------------------------------------------------------
  General SCF calculation program by
  Eric Jon Sundstrom, Paul Horn, Yuezhi Mao, Dmitri Zuev, Alec White,
  David Stuck, Shaama M.S., Shane Yost, Joonho Lee, David Small,
  Daniel Levine, Susi Lehtola, Hugh Burton, Evgeny Epifanovsky,
  Bang C. Huynh
 -----------------------------------------------------------------------
 Exchange:     0.2000 Hartree-Fock + 0.0800 Slater + 0.7200 B88
 Correlation:  0.1900 VWN1RPA + 0.8100 LYP
 Using Euler-Maclaurin-Lebedev (75,302) quadrature formula
 A restricted SCF calculation will be
 performed using DIIS
 SCF converges when DIIS error is below 1.0e-08
 ---------------------------------------
  Cycle       Energy         DIIS error
 ---------------------------------------
    1    -382.1612950818      7.26e-03  
    2    -382.0475125947      1.93e-03  
    3    -381.6748207046      2.84e-03  
    4    -382.3781772965      6.85e-05  
    5    -382.3783026703      5.97e-05  
    6    -382.3785761735      1.34e-05  
    7    -382.3785901558      1.98e-06  
    8    -382.3785902936      1.58e-06  
    9    -382.3785904978      8.98e-08  
   10    -382.3785904985      2.68e-08  
   11    -382.3785904985      1.44e-08  
   12    -382.3785904985      1.54e-09  Convergence criterion met
 ---------------------------------------
 SCF time:   CPU 68115.78s  wall 2164.00s 
 SCF   energy =  -382.37859050
 Total energy =  -382.37859050

 --------------------------------------------------------------

                    Orbital Energies (a.u.)
 --------------------------------------------------------------

 Alpha MOs
 -- Occupied --
-19.1837 -19.1521 -19.1416 -19.1021 -19.1008  -1.0645  -1.0309  -1.0288
 -0.9907  -0.9774  -0.5915  -0.5532  -0.5491  -0.5277  -0.5219  -0.4417
 -0.4255  -0.4068  -0.3727  -0.3631  -0.3487  -0.3427  -0.3309  -0.2969
 -0.2943
 -- Virtual --
 -0.0496  -0.0127   0.0174   0.0227   0.0442   0.0593   0.0700   0.1094
  0.1239   0.1294   0.1702   0.1904   0.1916   0.1933   0.2026   0.2067
  0.2234   0.2309   0.2361   0.2462   0.2528   0.2568   0.2614   0.2802
  0.2897   0.2934   0.3053   0.3089   0.3175   0.3285   0.3344   0.3502
  0.3607   0.3685   0.3731   0.3829   0.3907   0.4089   0.4278   0.4530
  0.4697   0.4827   0.4981   0.5049   0.5255   0.5293   0.5407   0.5512
  0.5686   0.5908   0.6026   0.6105   0.6284   0.6375   0.6582   0.6703
  0.6747   0.6912   0.7057   0.7080   0.7251   0.7383   0.7457   0.7602
  0.7788   0.7810   0.7942   0.8037   0.8046   0.8135   0.8303   0.8313
  0.8424   0.8625   0.8813   0.9021   0.9126   0.9244   0.9659   0.9686
  0.9942   0.9969   1.0081   1.0266   1.0337   1.0452   1.0559   1.0645
  1.0725   1.0862   1.1044   1.1151   1.1239   1.1476   1.1544   1.1808
  1.1949   1.2004   1.2221   1.2389   1.2510   1.2655   1.2744   1.2901
  1.3087   1.3172   1.3328   1.3419   1.3512   1.3715   1.3800   1.3964
  1.4214   1.4353   1.4414   1.4669   1.4802   1.4883   1.5010   1.5045
  1.5216   1.5432   1.5533   1.5580   1.5697   1.5805   1.5855   1.6254
  1.6304   1.6437   1.6544   1.6613   1.6783   1.6805   1.6894   1.6949
  1.7054   1.7187   1.7256   1.7275   1.7482   1.7637   1.7732   1.7785
  1.7800   1.7883   1.7963   1.7997   1.8046   1.8153   1.8316   1.8492
  1.8707   1.8790   1.8858   1.8929   1.9065   1.9113   1.9168   1.9344
  1.9489   1.9682   1.9823   1.9929   2.0114   2.0139   2.0228   2.0534
  2.0622   2.0823   2.0954   2.1270   2.1299   2.1432   2.1633   2.1695
  2.1849   2.1973   2.2263   2.2411   2.2637   2.2782   2.3159   2.3210
  2.3396   2.3516   2.3597   2.3701   2.3841   2.3912   2.3992   2.4154
  2.4220   2.4374   2.4482   2.4635   2.4743   2.5118   2.5274   2.5345
  2.5546   2.5819   2.6014   2.6363   2.6448   2.6614   2.6793   2.6835
  2.7008   2.7085   2.7175   2.7257   2.7353   2.7495   2.7753   2.7840
  2.7954   2.8180   2.8551   2.8618   2.8812   2.8929   2.9090   2.9221
  2.9298   2.9497   2.9654   2.9849   3.0228   3.0283   3.0304   3.0576
  3.0870   3.1085   3.1372   3.1464   3.1596   3.1856   3.1898   3.2052
  3.2354   3.2540   3.2614   3.2779   3.3027   3.3382   3.3539   3.3730
  3.3801   3.3869   3.3959   3.4084   3.4257   3.4418   3.4652   3.4723
  3.4836   3.4931   3.5138   3.5218   3.5374   3.5451   3.5533   3.5794
  3.6012   3.6207   3.6318   3.6611   3.6834   3.7142   3.7283   3.7336
  3.7547   3.7611   3.7860   3.7905   3.8011   3.8225   3.8337   3.8535
  3.8588   3.8766   3.8856   3.9120   3.9168   3.9298   3.9685   3.9774
  3.9913   4.0049   4.0194   4.0292   4.0739   4.0959   4.1212   4.1507
  4.1864   4.2505   4.2639   4.2815   4.3023   4.3108   4.3328   4.3604
  4.3714   4.3800   4.3926   4.4036   4.4101   4.4136   4.4234   4.4241
  4.4393   4.4558   4.4589   4.4665   4.4861   4.4991   4.5152   4.5203
  4.5313   4.5345   4.5446   4.5493   4.5730   4.5768   4.5859   4.5947
  4.6036   4.6137   4.6185   4.6399   4.6566   4.6890   4.6993   4.7076
  4.7151   4.7216   4.7347   4.7591   4.7740   4.7795   4.7966   4.8052
  4.8085   4.8325   4.8467   4.8641   4.8671   4.8821   4.8968   4.9057
  4.9103   4.9179   4.9331   4.9525   4.9625   4.9740   4.9866   4.9991
  5.0090   5.0384   5.0710   5.1012   5.1222   5.1370   5.1590   5.1799
  5.1816   5.1966   5.2646   5.2815   5.2890   5.2920   5.3303   5.3389
  5.3542   5.3604   5.3908   5.4195   5.4322   5.4408   5.4678   5.5161
  5.5326   5.5521   5.5765   5.6139   5.6312   5.6426   5.6547   5.6690
  5.7233   5.7708   5.7869   5.8155   5.8327   5.8681   5.8799   5.9270
  5.9325   6.0036   6.0412   6.0556   6.0693   6.1012   6.1550   6.1772
  6.2203   6.2232   6.2362   6.2528   6.2660   6.2850   6.3059   6.3131
  6.3348   6.3526   6.3613   6.3832   6.3986   6.4075   6.4523   6.4725
  6.5198   6.5339   6.5503   6.5570   6.5904   6.6045   6.6140   6.6236
  6.6505   6.6809   6.7062   6.7152   6.7187   6.7549   6.7598   6.7666
  6.7843   6.7901   6.8038   6.8261   6.8294   6.8576   6.8634   6.8732
  6.8974   6.9131   6.9306   6.9450   6.9626   6.9723   6.9969   7.0051
  7.0401   7.0717   7.0738   7.0809   7.0956   7.1152   7.1336   7.1648
  7.1893   7.2032   7.2091   7.2571   7.2606   7.2898   7.3293   7.3371
  7.3496   7.3645   7.3751   7.4302   7.4368   7.4581   7.4685   7.4806
  7.5182   7.5350   7.5457   7.5543   7.5767   7.6400   7.6963   7.7177
  7.7576   7.7831   7.7937   7.8028   7.8202   7.8402   7.8694   7.8864
  7.9031   7.9452   7.9553   7.9752   8.0204   8.0514   8.1045   8.1256
  8.1418   8.1979   8.2775   8.3876   8.4207   8.4935   8.5348   8.5501
  8.7420   8.7601   8.8242   8.9194   9.0052   9.0172   9.0190   9.0267
  9.0458   9.0861   9.0930   9.1143   9.1436   9.1835   9.2487   9.2565
  9.3248   9.3865   9.6190   9.6346   9.6834   9.6890   9.6982   9.7274
  9.7415   9.7524   9.7737   9.7949   9.8127   9.8270   9.8610   9.9293
 10.0725  11.6497  11.6706  11.7024  11.7059  11.7308  11.7489  11.7607
 11.7641  11.7694  11.7758  11.7997  11.8214  11.8533  11.8562  11.8830
 11.8897  11.9085  11.9561  11.9768  11.9933  12.0104  12.0477  12.0562
 12.0639  12.0790  12.0894  12.1039  12.1297  12.1387  12.1509  12.1529
 12.1564  12.1607  12.1646  12.1779  12.1788  12.1852  12.1924  12.1961
 12.1995  12.2017  12.2157  12.2296  12.2451  12.2526  12.2562  12.2668
 12.2692  12.2757  12.2866  12.3033  12.3060  12.3130  12.3239  12.3337
 12.3412  12.3727  12.3807  12.3828  12.3882  12.4027  12.4029  12.4295
 12.4385  12.4528  12.4556  12.4799  12.5056  12.5145  12.5319  12.5431
 12.5529  12.5769  12.5859  12.5875  12.5993  12.6087  12.6241  12.6567
 12.6645  12.6843  12.7030  12.7100  12.7134  12.7406  12.7726  12.8119
 12.8326  12.8464  12.8561  12.8655  12.9023  12.9141  12.9197  12.9307
 12.9449  12.9879  12.9952  12.9980  13.0386  13.0482  13.0626  13.0763
 13.1029  13.1161  13.1712  13.1900  13.1926  13.1986  13.2307  13.2531
 13.2568  13.2677  13.2849  13.3066  13.3139  13.3254  13.3337  13.3404
 13.3576  13.3657  13.3852  13.3921  13.3978  13.4209  13.4238  13.4301
 13.4383  13.4530  13.4593  13.4726  13.4747  13.4817  13.5009  13.5152
 13.5180  13.5417  13.5446  13.5498  13.5586  13.5798  13.5847  13.6134
 13.6185  13.6437  13.6513  13.6712  13.6784  13.7052  13.7153  13.7520
 13.7632  13.7654  13.7842  13.7917  13.8273  13.8321  13.8940  13.8983
 13.9054  13.9349  13.9411  13.9459  13.9876  14.0199  14.0327  14.0486
 14.0552  14.0869  14.1050  14.1122  14.1265  14.1484  14.1522  14.1656
 14.1989  14.2323  14.2461  14.2798  14.3072  14.3136  14.3188  14.3360
 14.3668  14.3966  14.4404  14.4720  14.4881  14.5199  14.5352  14.5585
 14.6109  14.6915  14.6956  14.7490  15.0304  15.1256  15.1437  15.1929
 15.2893  15.3153  15.3455  15.3695  15.4102  15.4587  15.4772  15.4859
 15.5251  15.5972  15.6325  15.6961  15.7163  15.8031  15.8251  15.8340
 15.8404  15.8584  15.9271  15.9523  15.9713  15.9941  15.9990  16.0141
 16.0177  16.0338  16.0488  16.0569  16.0698  16.0737  16.0856  16.0921
 16.1332  16.1578  16.1659  16.1779  16.2009  16.2084  16.2262  16.2587
 16.2798  16.3041  16.3088  16.3106  16.3207  16.3281  16.3447  16.3667
 16.3848  16.3897  16.4256  16.4466  16.4674  16.5248  16.6208  16.6783
 16.7007  16.7384  16.8398  16.8754  16.9417  16.9523  16.9736  16.9941
 17.0103  17.0296  17.0402  17.0447  17.0595  17.1038  17.1424  17.1777
 17.2052  17.2211  17.2339  17.2438  17.2810  17.2888  17.3570  17.3673
 17.3968  17.4025  17.4298  17.5183  17.5199  17.5323  17.5601  17.5670
 17.5856  17.6510  17.6657  17.6766  17.7139  17.7397  17.7597  17.8688
 17.9657  18.0134  18.0212  18.0318  18.0730  18.0996  18.1135  18.1656
 18.1752  18.1947  18.2232  18.2543  18.2653  18.2862  18.2957  18.3149
 18.3219  18.3399  18.3652  18.3662  18.3894  18.3928  18.4197  18.4684
 18.5313  18.5735  18.6348  18.6438  18.7206  18.7265  18.7713  18.7889
 18.8324  18.8767  18.8833  18.9279  18.9513  18.9807  19.0682  19.0752
 19.0994  19.1626  19.2150  19.2177  19.2570  19.2909  19.3405  19.3729
 19.3811  19.4056  19.4116  19.4153  19.4231  19.4459  19.4899  19.4951
 19.5021  19.5081  19.5411  19.5618  19.6482  19.6673  19.6944  19.7342
 19.7376  19.7601  19.7875  19.8283  19.8629  19.8977  20.6199  20.6658
 20.6675  20.7583  20.7665  20.8151  20.8257  20.8973  20.9215  21.1080
 21.8202  21.8450  21.8588  21.8722  21.8860  21.9062  21.9211  21.9788
 22.0930  22.2104  22.2164  22.2431  22.2560  22.2659  22.3333  22.3520
 22.3939  22.4086  22.6001  22.6706  22.6777  23.0452  23.0603  23.0798
 23.1375  23.1900  23.2029  23.2212  23.2386  23.3224  23.3341  23.3562
 23.4237  23.5676  23.6193  24.2950  24.3309  24.3451  24.4250  24.4717
 24.5662  24.5773  24.6974  24.7980  24.9098  24.9324  25.0545  25.0647
 25.1043  25.1631  25.8338  25.8495  25.9972  26.0610  26.3898  63.9921
 64.0267  64.1746  64.2688  64.3419
 --------------------------------------------------------------


                        RESTRICTED (RHF) MOLECULAR ORBITAL COEFFICIENTS
                         1         2         3         4         5         6
 eigenvalues:        -19.184   -19.152   -19.142   -19.102   -19.101    -1.064
   1  O 1   s        0.00000  -0.97844   0.00001  -0.00005   0.00001   0.00244
   2  O 1   s        0.00004  -0.03086   0.00001  -0.00004   0.00001  -0.03685
   3  O 1   s        0.00004  -0.08487   0.00001  -0.00007   0.00003  -0.00110
   4  O 1   s        0.00003   0.01490  -0.00001   0.00036  -0.00018  -0.04180
   5  O 1   s       -0.00029   0.01323  -0.00038  -0.00134   0.00059  -0.05565
   6  O 1   s       -0.00042   0.00141   0.00023  -0.00106   0.00051  -0.02473
   7  O 1   px      -0.00000  -0.00024   0.00000  -0.00000  -0.00000  -0.00121
   8  O 1   py      -0.00000  -0.00102   0.00000   0.00000   0.00000  -0.00273
   9  O 1   pz       0.00000   0.00023  -0.00000  -0.00000   0.00000   0.00108
  10  O 1   px       0.00003  -0.00021  -0.00002   0.00004   0.00002  -0.00197
  11  O 1   py       0.00001  -0.00063   0.00001   0.00002  -0.00002  -0.00446
  12  O 1   pz      -0.00003   0.00015   0.00002  -0.00001  -0.00001   0.00177
  13  O 1   px      -0.00019   0.00156   0.00014  -0.00033  -0.00012  -0.00284
  14  O 1   py      -0.00001   0.00817  -0.00013  -0.00008   0.00009  -0.00738
  15  O 1   pz       0.00018  -0.00130  -0.00010   0.00022   0.00008   0.00251
  16  O 1   px       0.00005  -0.00031   0.00065   0.00039  -0.00057  -0.00256
  17  O 1   py      -0.00023   0.00197  -0.00036  -0.00117   0.00073  -0.00406
  18  O 1   pz      -0.00007   0.00071  -0.00038  -0.00036   0.00038   0.00278
  19  O 1   px       0.00007  -0.00034   0.00005   0.00041  -0.00007  -0.00139
  20  O 1   py      -0.00009   0.00062   0.00004   0.00024   0.00017  -0.00127
  21  O 1   pz      -0.00003   0.00026  -0.00009  -0.00026   0.00002   0.00082
  22  O 1   d 1      0.00000   0.00007   0.00000  -0.00000  -0.00000  -0.00001
  23  O 1   d 2     -0.00000  -0.00006   0.00000   0.00000   0.00000   0.00000
  24  O 1   d 3      0.00000   0.00010   0.00000   0.00001  -0.00000   0.00001
  25  O 1   d 4     -0.00000   0.00024   0.00000   0.00001  -0.00000   0.00005
  26  O 1   d 5      0.00000   0.00004   0.00000   0.00002  -0.00000   0.00000
  27  O 1   d 1     -0.00001  -0.00014  -0.00001  -0.00000   0.00001   0.00004
  28  O 1   d 2      0.00000   0.00011   0.00000  -0.00000  -0.00001  -0.00002
  29  O 1   d 3     -0.00000  -0.00018  -0.00001  -0.00006   0.00001   0.00012
  30  O 1   d 4     -0.00000  -0.00040   0.00000  -0.00001   0.00001   0.00027
  31  O 1   d 5      0.00000  -0.00010  -0.00000  -0.00006   0.00000   0.00006
  32  O 1   d 1      0.00000  -0.00096   0.00012   0.00004  -0.00013   0.00024
  33  O 1   d 2      0.00002   0.00072  -0.00006   0.00000   0.00009  -0.00017
  34  O 1   d 3     -0.00003  -0.00095   0.00007   0.00018  -0.00005   0.00048
  35  O 1   d 4      0.00012  -0.00246  -0.00002   0.00005  -0.00001   0.00139
  36  O 1   d 5     -0.00008  -0.00029   0.00006   0.00015  -0.00008   0.00016
  37  O 1   d 1      0.00001   0.00006   0.00025   0.00100  -0.00030   0.00019
  38  O 1   d 2      0.00002  -0.00001  -0.00009  -0.00080   0.00018  -0.00017
  39  O 1   d 3      0.00009   0.00016   0.00008   0.00020  -0.00010   0.00010
  40  O 1   d 4      0.00018   0.00102  -0.00014  -0.00023   0.00003   0.00156
  41  O 1   d 5     -0.00007  -0.00013   0.00008   0.00046  -0.00023  -0.00024
  42  O 1   f 1      0.00000  -0.00002  -0.00000   0.00000   0.00000  -0.00000
  43  O 1   f 2      0.00000   0.00009  -0.00000  -0.00000  -0.00000   0.00000
  44  O 1   f 3      0.00000   0.00001  -0.00000   0.00000   0.00000  -0.00000
  45  O 1   f 4     -0.00000   0.00001  -0.00000   0.00001   0.00000   0.00000
  46  O 1   f 5      0.00000  -0.00006   0.00000   0.00000  -0.00000  -0.00000
  47  O 1   f 6     -0.00000   0.00011   0.00000   0.00000   0.00000   0.00000
  48  O 1   f 7     -0.00000  -0.00011   0.00000  -0.00000  -0.00000  -0.00000
  49  O 1   f 1     -0.00001   0.00013   0.00000  -0.00002  -0.00001  -0.00001
  50  O 1   f 2      0.00000  -0.00073   0.00000   0.00002   0.00000   0.00020
  51  O 1   f 3     -0.00001  -0.00013   0.00001  -0.00001  -0.00001   0.00008
  52  O 1   f 4     -0.00000  -0.00008   0.00001  -0.00005  -0.00001  -0.00003
  53  O 1   f 5     -0.00002   0.00043  -0.00000  -0.00001   0.00000  -0.00012
  54  O 1   f 6      0.00001  -0.00082  -0.00000  -0.00000  -0.00000   0.00023
  55  O 1   f 7      0.00000   0.00086  -0.00001   0.00002   0.00001  -0.00020
  56  O 1   f 1     -0.00004  -0.00008  -0.00001   0.00036  -0.00004  -0.00004
  57  O 1   f 2      0.00007   0.00024  -0.00003  -0.00032  -0.00001   0.00023
  58  O 1   f 3     -0.00003  -0.00008   0.00003   0.00026  -0.00004  -0.00001
  59  O 1   f 4     -0.00004   0.00002   0.00000   0.00009  -0.00005   0.00002
  60  O 1   f 5     -0.00005  -0.00040   0.00001  -0.00007   0.00002  -0.00036
  61  O 1   f 6      0.00007   0.00055  -0.00002   0.00024  -0.00004   0.00054
  62  O 1   f 7     -0.00009  -0.00066  -0.00005  -0.00032   0.00009  -0.00051
  63  O 1   g 1      0.00000   0.00010  -0.00000  -0.00000  -0.00000  -0.00002
  64  O 1   g 2     -0.00000  -0.00008   0.00000  -0.00000   0.00000   0.00001
  65  O 1   g 3      0.00000   0.00005  -0.00000  -0.00001  -0.00000  -0.00001
  66  O 1   g 4     -0.00000  -0.00005   0.00000   0.00001  -0.00000   0.00001
  67  O 1   g 5     -0.00000  -0.00003  -0.00000   0.00000   0.00000   0.00001
  68  O 1   g 6      0.00000   0.00005  -0.00000   0.00001   0.00000  -0.00001
  69  O 1   g 7      0.00000   0.00007  -0.00000   0.00000  -0.00000  -0.00001
  70  O 1   g 8      0.00000   0.00002  -0.00000   0.00001   0.00000  -0.00001
  71  O 1   g 9     -0.00000  -0.00001  -0.00000  -0.00001  -0.00000  -0.00000
  72  O 1   g 1     -0.00001   0.00002  -0.00000  -0.00001   0.00001  -0.00011
  73  O 1   g 2      0.00001   0.00005  -0.00001   0.00002   0.00000   0.00009
  74  O 1   g 3     -0.00001  -0.00002   0.00000   0.00002   0.00000  -0.00005
  75  O 1   g 4     -0.00000  -0.00004  -0.00000  -0.00003  -0.00001   0.00005
  76  O 1   g 5      0.00002  -0.00002  -0.00001  -0.00004   0.00000   0.00003
  77  O 1   g 6     -0.00001   0.00002  -0.00000  -0.00002   0.00000  -0.00005
  78  O 1   g 7     -0.00002  -0.00003   0.00000  -0.00003   0.00001  -0.00010
  79  O 1   g 8      0.00001   0.00003   0.00000  -0.00001   0.00000   0.00002
  80  O 1   g 9      0.00000   0.00000   0.00001  -0.00000   0.00000  -0.00002
  81  O 1   h 1     -0.00000  -0.00002   0.00000  -0.00001  -0.00000  -0.00000
  82  O 1   h 2      0.00000   0.00002  -0.00000   0.00000   0.00000   0.00001
  83  O 1   h 3     -0.00000   0.00003   0.00000   0.00001  -0.00000  -0.00002
  84  O 1   h 4      0.00000   0.00003  -0.00000   0.00000   0.00000  -0.00001
  85  O 1   h 5      0.00000  -0.00001  -0.00000  -0.00000  -0.00000   0.00000
  86  O 1   h 6     -0.00000   0.00003   0.00000  -0.00000   0.00000  -0.00001
  87  O 1   h 7      0.00000  -0.00002   0.00000   0.00001  -0.00000   0.00002
  88  O 1   h 8      0.00000   0.00002  -0.00000  -0.00001   0.00000  -0.00001
  89  O 1   h 9     -0.00000   0.00002   0.00000   0.00001   0.00000  -0.00001
  90  O 1   h10      0.00000  -0.00002   0.00000   0.00000  -0.00000   0.00001
  91  O 1   h11      0.00000  -0.00003  -0.00000   0.00001  -0.00000   0.00001
  92  H 1   s       -0.00000   0.00009   0.00000   0.00001  -0.00000  -0.00408
  93  H 1   s       -0.00006   0.00192   0.00004  -0.00012  -0.00004  -0.00860
  94  H 1   s        0.00073  -0.00674  -0.00053  -0.00032   0.00035  -0.01367
  95  H 1   s       -0.00001  -0.00067  -0.00072  -0.00019   0.00034  -0.00154
  96  H 1   s       -0.00003   0.00032   0.00015  -0.00025  -0.00007   0.00090
  97  H 1   px       0.00002  -0.00010  -0.00000   0.00000  -0.00000   0.00013
  98  H 1   py       0.00000  -0.00003   0.00000  -0.00002   0.00000   0.00003
  99  H 1   pz      -0.00002   0.00008   0.00000  -0.00000   0.00000  -0.00009
 100  H 1   px      -0.00008  -0.00028  -0.00000   0.00001   0.00002   0.00031
 101  H 1   py      -0.00001  -0.00012  -0.00001   0.00010  -0.00001   0.00012
 102  H 1   pz       0.00008   0.00024   0.00000  -0.00001  -0.00002  -0.00018
 103  H 1   px      -0.00017   0.00485   0.00017   0.00006  -0.00016  -0.00040
 104  H 1   py      -0.00013   0.00145   0.00004  -0.00060   0.00005  -0.00054
 105  H 1   pz       0.00009  -0.00391  -0.00010   0.00007   0.00014   0.00064
 106  H 1   px       0.00055   0.00105   0.00039  -0.00002  -0.00003  -0.00003
 107  H 1   py       0.00010   0.00008  -0.00001  -0.00046  -0.00012  -0.00117
 108  H 1   pz      -0.00036  -0.00093  -0.00024   0.00002   0.00007   0.00007
 109  H 1   d 1     -0.00002   0.00010   0.00000  -0.00001  -0.00000  -0.00003
 110  H 1   d 2      0.00000  -0.00007   0.00000   0.00001   0.00000   0.00003
 111  H 1   d 3      0.00000  -0.00001   0.00000  -0.00000  -0.00000  -0.00001
 112  H 1   d 4      0.00002  -0.00022  -0.00000   0.00001   0.00000   0.00009
 113  H 1   d 5     -0.00001   0.00012   0.00000   0.00000  -0.00001  -0.00004
 114  H 1   d 1      0.00009  -0.00076  -0.00001   0.00005   0.00001  -0.00005
 115  H 1   d 2     -0.00003   0.00056   0.00000  -0.00004  -0.00001   0.00001
 116  H 1   d 3     -0.00003  -0.00000   0.00000   0.00003   0.00000  -0.00003
 117  H 1   d 4     -0.00009   0.00173   0.00003  -0.00006  -0.00002   0.00037
 118  H 1   d 5      0.00006  -0.00095  -0.00002  -0.00002   0.00003  -0.00023
 119  H 1   d 1     -0.00006  -0.00078   0.00001   0.00037  -0.00004   0.00017
 120  H 1   d 2     -0.00003   0.00066  -0.00002  -0.00026   0.00003   0.00006
 121  H 1   d 3      0.00009  -0.00028   0.00003  -0.00008   0.00003  -0.00038
 122  H 1   d 4     -0.00017   0.00227   0.00005  -0.00005  -0.00005   0.00106
 123  H 1   d 5      0.00007  -0.00127  -0.00005  -0.00018   0.00002  -0.00038
 124  H 1   f 1     -0.00000   0.00009   0.00000   0.00001   0.00000   0.00000
 125  H 1   f 2      0.00000  -0.00012  -0.00000  -0.00000  -0.00000   0.00000
 126  H 1   f 3      0.00000   0.00004   0.00000  -0.00000   0.00000  -0.00000
 127  H 1   f 4      0.00000   0.00010   0.00000   0.00000  -0.00000  -0.00001
 128  H 1   f 5     -0.00001   0.00009   0.00000  -0.00001  -0.00000  -0.00001
 129  H 1   f 6      0.00000  -0.00015  -0.00000   0.00001   0.00000   0.00002
 130  H 1   f 7     -0.00000   0.00005   0.00000  -0.00001   0.00000  -0.00001
 131  H 1   f 1     -0.00003   0.00047  -0.00000  -0.00005   0.00000  -0.00001
 132  H 1   f 2      0.00003  -0.00066   0.00001   0.00006   0.00000   0.00002
 133  H 1   f 3     -0.00001   0.00013  -0.00000  -0.00001  -0.00000  -0.00001
 134  H 1   f 4     -0.00003   0.00056   0.00001  -0.00004   0.00000   0.00010
 135  H 1   f 5      0.00004   0.00053  -0.00000  -0.00003  -0.00002   0.00006
 136  H 1   f 6     -0.00001  -0.00087  -0.00002  -0.00001   0.00002  -0.00018
 137  H 1   f 7      0.00001   0.00031   0.00001   0.00007  -0.00002   0.00009
 138  H 1   g 1      0.00000  -0.00007  -0.00000  -0.00000   0.00000  -0.00000
 139  H 1   g 2     -0.00001   0.00014  -0.00000   0.00000   0.00000   0.00000
 140  H 1   g 3      0.00000  -0.00009   0.00000  -0.00000   0.00000  -0.00000
 141  H 1   g 4      0.00000  -0.00003   0.00000  -0.00000  -0.00000  -0.00000
 142  H 1   g 5     -0.00001   0.00010   0.00000  -0.00001  -0.00000   0.00001
 143  H 1   g 6      0.00000  -0.00005  -0.00000  -0.00000  -0.00000  -0.00000
 144  H 1   g 7      0.00001  -0.00011  -0.00000   0.00001   0.00000  -0.00000
 145  H 1   g 8     -0.00001   0.00008   0.00000  -0.00000  -0.00000   0.00001
 146  H 1   g 9      0.00000  -0.00002  -0.00000  -0.00001   0.00000  -0.00000
 147  H 2   s        0.00000   0.00022  -0.00000  -0.00002   0.00001  -0.00298
 148  H 2   s        0.00002   0.00160  -0.00006   0.00013   0.00000  -0.00661
 149  H 2   s        0.00018  -0.01047   0.00080   0.00193  -0.00120  -0.00769
 150  H 2   s        0.00053  -0.00295   0.00054   0.00096  -0.00064  -0.00145
 151  H 2   s       -0.00001  -0.00036  -0.00008  -0.00004  -0.00000  -0.00067
 152  H 2   px      -0.00000   0.00009  -0.00000   0.00001   0.00000  -0.00011
 153  H 2   py      -0.00000  -0.00019  -0.00000   0.00000  -0.00000   0.00019
 154  H 2   pz       0.00000  -0.00007   0.00000   0.00000  -0.00000   0.00008
 155  H 2   px       0.00001  -0.00008   0.00001  -0.00002  -0.00000  -0.00031
 156  H 2   py       0.00000   0.00015   0.00002  -0.00005   0.00001   0.00058
 157  H 2   pz      -0.00000   0.00006  -0.00000   0.00000   0.00000   0.00025
 158  H 2   px      -0.00006  -0.00337   0.00006   0.00054  -0.00019  -0.00061
 159  H 2   py      -0.00006   0.00728  -0.00036  -0.00018   0.00039   0.00059
 160  H 2   pz       0.00001   0.00243  -0.00015  -0.00044   0.00015   0.00042
 161  H 2   px       0.00006  -0.00132   0.00018   0.00026  -0.00012  -0.00004
 162  H 2   py      -0.00020   0.00260  -0.00033  -0.00044   0.00029  -0.00001
 163  H 2   pz      -0.00010   0.00092  -0.00023  -0.00018   0.00013   0.00028
 164  H 2   d 1     -0.00000  -0.00010  -0.00000   0.00001  -0.00000   0.00006
 165  H 2   d 2      0.00000   0.00007  -0.00000  -0.00001   0.00000  -0.00005
 166  H 2   d 3     -0.00000  -0.00007   0.00001  -0.00001  -0.00000   0.00003
 167  H 2   d 4     -0.00001  -0.00004   0.00000   0.00000  -0.00000   0.00003
 168  H 2   d 5      0.00000  -0.00010   0.00000  -0.00003  -0.00000   0.00004
 169  H 2   d 1      0.00002   0.00156  -0.00002  -0.00006   0.00004   0.00006
 170  H 2   d 2     -0.00001  -0.00114   0.00004   0.00007  -0.00003  -0.00003
 171  H 2   d 3      0.00001   0.00104  -0.00004   0.00006   0.00002   0.00005
 172  H 2   d 4      0.00002   0.00057  -0.00001  -0.00006   0.00002   0.00005
 173  H 2   d 5     -0.00001   0.00144  -0.00004   0.00011   0.00003   0.00004
 174  H 2   d 1      0.00003   0.00198  -0.00006  -0.00019   0.00005   0.00006
 175  H 2   d 2      0.00001  -0.00145   0.00012   0.00014  -0.00005  -0.00007
 176  H 2   d 3     -0.00000   0.00125   0.00002   0.00011   0.00000  -0.00002
 177  H 2   d 4     -0.00000   0.00069  -0.00004  -0.00000   0.00000   0.00011
 178  H 2   d 5     -0.00004   0.00166  -0.00010   0.00019   0.00004  -0.00001
 179  H 2   f 1     -0.00000  -0.00007   0.00000   0.00000  -0.00000  -0.00000
 180  H 2   f 2      0.00000  -0.00011   0.00000   0.00001  -0.00000  -0.00001
 181  H 2   f 3      0.00000  -0.00010   0.00000  -0.00000  -0.00000  -0.00001
 182  H 2   f 4      0.00000  -0.00011   0.00000   0.00000  -0.00000  -0.00001
 183  H 2   f 5     -0.00000   0.00004   0.00000   0.00001   0.00000   0.00000
 184  H 2   f 6      0.00000  -0.00011   0.00000  -0.00001  -0.00000  -0.00001
 185  H 2   f 7      0.00000   0.00021  -0.00000   0.00001   0.00000   0.00002
 186  H 2   f 1      0.00002  -0.00034   0.00002  -0.00010  -0.00000  -0.00003
 187  H 2   f 2     -0.00001  -0.00064   0.00001   0.00000   0.00000  -0.00003
 188  H 2   f 3     -0.00000  -0.00052  -0.00001  -0.00009   0.00001  -0.00002
 189  H 2   f 4     -0.00001  -0.00057   0.00001   0.00001  -0.00000  -0.00001
 190  H 2   f 5      0.00000   0.00020  -0.00000  -0.00002   0.00000  -0.00000
 191  H 2   f 6      0.00000  -0.00047   0.00002   0.00003  -0.00001   0.00000
 192  H 2   f 7      0.00000   0.00095  -0.00001  -0.00002   0.00001   0.00001
 193  H 2   g 1      0.00000  -0.00012   0.00000  -0.00000  -0.00000  -0.00001
 194  H 2   g 2     -0.00000   0.00003  -0.00000   0.00000   0.00000   0.00000
 195  H 2   g 3     -0.00000  -0.00003  -0.00000  -0.00000   0.00000  -0.00000
 196  H 2   g 4      0.00000   0.00009  -0.00000   0.00000  -0.00000   0.00001
 197  H 2   g 5     -0.00000  -0.00003  -0.00000  -0.00001   0.00000   0.00000
 198  H 2   g 6     -0.00000  -0.00004   0.00000   0.00000   0.00000  -0.00000
 199  H 2   g 7     -0.00000  -0.00004  -0.00000  -0.00001   0.00000  -0.00000
 200  H 2   g 8      0.00000  -0.00010   0.00000  -0.00000   0.00000  -0.00001
 201  H 2   g 9      0.00000   0.00000   0.00000  -0.00001   0.00000   0.00000
 202  O 2   s        0.00000  -0.00000   0.97840   0.00000   0.00000   0.00002
 203  O 2   s        0.00000  -0.00001   0.03082   0.00000   0.00000  -0.00032
 204  O 2   s        0.00000  -0.00001   0.08494   0.00000  -0.00000  -0.00001
 205  O 2   s       -0.00001   0.00007  -0.01514   0.00001  -0.00001  -0.00034
 206  O 2   s       -0.00005  -0.00003  -0.01530  -0.00015   0.00008  -0.00077
 207  O 2   s        0.00001   0.00007  -0.00280  -0.00012   0.00010  -0.00094
 208  O 2   px      -0.00000  -0.00000  -0.00000  -0.00000  -0.00000  -0.00001
 209  O 2   py      -0.00000   0.00000   0.00007   0.00000  -0.00000   0.00000
 210  O 2   pz       0.00000   0.00000  -0.00124   0.00000  -0.00000   0.00003
 211  O 2   px       0.00000   0.00001  -0.00001   0.00000   0.00000  -0.00001
 212  O 2   py       0.00000  -0.00000   0.00003   0.00000   0.00000   0.00000
 213  O 2   pz      -0.00000   0.00000  -0.00065  -0.00000   0.00000   0.00004
 214  O 2   px      -0.00003  -0.00008  -0.00004  -0.00004  -0.00001  -0.00005
 215  O 2   py      -0.00001  -0.00001  -0.00046  -0.00001  -0.00000   0.00000
 216  O 2   pz       0.00001  -0.00003   0.00900   0.00003  -0.00001   0.00011
 217  O 2   px      -0.00001   0.00016   0.00021  -0.00002  -0.00000  -0.00017
 218  O 2   py      -0.00001  -0.00000  -0.00006  -0.00001   0.00000   0.00000
 219  O 2   pz       0.00000   0.00002   0.00120   0.00007  -0.00004   0.00020
 220  O 2   px       0.00000  -0.00006   0.00017  -0.00000  -0.00000   0.00000
 221  O 2   py      -0.00000  -0.00001  -0.00001   0.00001  -0.00000  -0.00000
 222  O 2   pz      -0.00000  -0.00002   0.00018   0.00001  -0.00002   0.00013
 223  O 2   d 1      0.00000  -0.00000   0.00009   0.00000  -0.00000  -0.00000
 224  O 2   d 2     -0.00000  -0.00000  -0.00002  -0.00000  -0.00000  -0.00000
 225  O 2   d 3      0.00000   0.00000   0.00004   0.00000  -0.00000   0.00000
 226  O 2   d 4     -0.00000  -0.00000  -0.00000  -0.00000  -0.00000   0.00000
 227  O 2   d 5      0.00000  -0.00000   0.00027  -0.00000  -0.00000  -0.00000
 228  O 2   d 1     -0.00000   0.00000  -0.00015  -0.00000   0.00000   0.00000
 229  O 2   d 2      0.00000   0.00000   0.00004  -0.00000   0.00000   0.00000
 230  O 2   d 3     -0.00000  -0.00001  -0.00010  -0.00000   0.00000  -0.00000
 231  O 2   d 4      0.00000   0.00001   0.00001   0.00000   0.00000  -0.00000
 232  O 2   d 5     -0.00000   0.00000  -0.00045   0.00000  -0.00000  -0.00000
 233  O 2   d 1      0.00000  -0.00000  -0.00099  -0.00000  -0.00000  -0.00001
 234  O 2   d 2      0.00000  -0.00001   0.00016   0.00001   0.00000  -0.00001
 235  O 2   d 3      0.00000   0.00004   0.00002   0.00000  -0.00000   0.00001
 236  O 2   d 4      0.00001   0.00000   0.00005   0.00002   0.00000   0.00001
 237  O 2   d 5     -0.00001  -0.00003  -0.00304  -0.00002   0.00001  -0.00004
 238  O 2   d 1      0.00001   0.00001   0.00013  -0.00001  -0.00000  -0.00000
 239  O 2   d 2      0.00000   0.00000  -0.00004   0.00000   0.00000  -0.00000
 240  O 2   d 3     -0.00000   0.00004   0.00020  -0.00000   0.00000   0.00005
 241  O 2   d 4      0.00000  -0.00006  -0.00011   0.00000  -0.00000   0.00001
 242  O 2   d 5     -0.00000  -0.00009   0.00046  -0.00001   0.00001  -0.00011
 243  O 2   f 1      0.00000   0.00000   0.00001   0.00000  -0.00000   0.00000
 244  O 2   f 2      0.00000   0.00000  -0.00005  -0.00000  -0.00000   0.00000
 245  O 2   f 3      0.00000   0.00000   0.00000   0.00000  -0.00000  -0.00000
 246  O 2   f 4      0.00000   0.00000   0.00009   0.00000  -0.00000   0.00000
 247  O 2   f 5      0.00000  -0.00000   0.00000   0.00000   0.00000  -0.00000
 248  O 2   f 6     -0.00000  -0.00000  -0.00016  -0.00000   0.00000  -0.00000
 249  O 2   f 7      0.00000   0.00000  -0.00000   0.00000  -0.00000   0.00000
 250  O 2   f 1     -0.00000  -0.00000  -0.00007  -0.00000   0.00000  -0.00000
 251  O 2   f 2     -0.00000  -0.00000   0.00042   0.00000   0.00000   0.00000
 252  O 2   f 3     -0.00000   0.00000  -0.00003  -0.00000   0.00000   0.00000
 253  O 2   f 4     -0.00000  -0.00000  -0.00067  -0.00000   0.00000  -0.00000
 254  O 2   f 5     -0.00000   0.00000  -0.00003  -0.00000  -0.00000   0.00000
 255  O 2   f 6      0.00000   0.00000   0.00130   0.00000  -0.00000   0.00001
 256  O 2   f 7     -0.00000  -0.00000   0.00004  -0.00000  -0.00000  -0.00000
 257  O 2   f 1     -0.00000   0.00000   0.00002  -0.00000  -0.00000   0.00000
 258  O 2   f 2     -0.00000  -0.00001  -0.00014   0.00000   0.00000   0.00000
 259  O 2   f 3      0.00000   0.00001   0.00002   0.00000  -0.00000   0.00000
 260  O 2   f 4      0.00000  -0.00004   0.00015  -0.00000   0.00000  -0.00002
 261  O 2   f 5     -0.00000   0.00002   0.00003  -0.00001  -0.00000   0.00003
 262  O 2   f 6      0.00000   0.00004  -0.00046   0.00001  -0.00000   0.00003
 263  O 2   f 7      0.00000   0.00001  -0.00001   0.00001   0.00000  -0.00002
 264  O 2   g 1     -0.00000  -0.00000  -0.00004  -0.00000   0.00000  -0.00000
 265  O 2   g 2      0.00000   0.00000   0.00002   0.00000   0.00000   0.00000
 266  O 2   g 3     -0.00000  -0.00000  -0.00004  -0.00000   0.00000  -0.00000
 267  O 2   g 4     -0.00000  -0.00000  -0.00000  -0.00000   0.00000  -0.00000
 268  O 2   g 5      0.00000  -0.00000   0.00009   0.00000  -0.00000   0.00000
 269  O 2   g 6     -0.00000   0.00000   0.00000  -0.00000  -0.00000   0.00000
 270  O 2   g 7     -0.00000   0.00000  -0.00012  -0.00000   0.00000  -0.00000
 271  O 2   g 8      0.00000   0.00000  -0.00001   0.00000   0.00000  -0.00000
 272  O 2   g 9     -0.00000   0.00000  -0.00006  -0.00000  -0.00000   0.00000
 273  O 2   g 1      0.00000  -0.00000  -0.00005  -0.00000  -0.00000  -0.00000
 274  O 2   g 2     -0.00000  -0.00000   0.00001   0.00000   0.00000  -0.00000
 275  O 2   g 3      0.00000   0.00001  -0.00000  -0.00000  -0.00000   0.00000
 276  O 2   g 4      0.00000  -0.00000  -0.00000   0.00000  -0.00000  -0.00000
 277  O 2   g 5     -0.00000   0.00000   0.00003   0.00000  -0.00000   0.00000
 278  O 2   g 6     -0.00000  -0.00001  -0.00000   0.00000   0.00000  -0.00001
 279  O 2   g 7      0.00000   0.00000   0.00000  -0.00000   0.00000  -0.00000
 280  O 2   g 8      0.00000   0.00000   0.00000  -0.00000  -0.00000   0.00000
 281  O 2   g 9     -0.00000  -0.00001  -0.00006   0.00000   0.00000  -0.00000
 282  O 2   h 1      0.00000  -0.00000  -0.00001  -0.00000  -0.00000  -0.00000
 283  O 2   h 2     -0.00000   0.00000   0.00005   0.00000   0.00000   0.00000
 284  O 2   h 3      0.00000   0.00000  -0.00001  -0.00000  -0.00000   0.00000
 285  O 2   h 4     -0.00000  -0.00000   0.00000   0.00000   0.00000  -0.00000
 286  O 2   h 5     -0.00000  -0.00000   0.00000   0.00000   0.00000  -0.00000
 287  O 2   h 6      0.00000   0.00000  -0.00002   0.00000  -0.00000   0.00000
 288  O 2   h 7      0.00000   0.00000   0.00000  -0.00000  -0.00000   0.00000
 289  O 2   h 8     -0.00000  -0.00000  -0.00000  -0.00000   0.00000  -0.00000
 290  O 2   h 9     -0.00000   0.00000   0.00000   0.00000  -0.00000  -0.00000
 291  O 2   h10      0.00000   0.00000   0.00007   0.00000  -0.00000   0.00000
 292  O 2   h11     -0.00000  -0.00000   0.00001   0.00000   0.00000  -0.00000
 293  H 3   s        0.00000  -0.00000  -0.00024   0.00000   0.00000  -0.00003
 294  H 3   s       -0.00001  -0.00000  -0.00134  -0.00002   0.00000  -0.00009
 295  H 3   s        0.00006   0.00006   0.01002   0.00014  -0.00004   0.00019
 296  H 3   s        0.00001  -0.00009   0.00157   0.00008  -0.00005   0.00024
 297  H 3   s       -0.00000   0.00005   0.00014   0.00001   0.00001   0.00009
 298  H 3   px       0.00000   0.00000   0.00018   0.00000  -0.00000   0.00000
 299  H 3   py      -0.00000  -0.00000   0.00003   0.00000   0.00000   0.00000
 300  H 3   pz       0.00000   0.00000  -0.00014  -0.00000  -0.00000  -0.00000
 301  H 3   px       0.00000  -0.00001  -0.00023   0.00000  -0.00000   0.00000
 302  H 3   py       0.00000   0.00000  -0.00004   0.00000  -0.00000   0.00000
 303  H 3   pz      -0.00000  -0.00001   0.00012  -0.00000   0.00000  -0.00001
 304  H 3   px      -0.00002   0.00003  -0.00612  -0.00006   0.00001  -0.00003
 305  H 3   py      -0.00001  -0.00003  -0.00121  -0.00001   0.00001  -0.00003
 306  H 3   pz       0.00003   0.00009   0.00523   0.00004  -0.00001   0.00011
 307  H 3   px      -0.00003   0.00002  -0.00186  -0.00007   0.00002  -0.00009
 308  H 3   py      -0.00000   0.00000  -0.00031  -0.00001   0.00001  -0.00003
 309  H 3   pz       0.00000  -0.00005   0.00145   0.00003  -0.00001   0.00017
 310  H 3   d 1      0.00000   0.00000  -0.00003   0.00000  -0.00000  -0.00000
 311  H 3   d 2      0.00000   0.00000   0.00003   0.00000  -0.00000   0.00000
 312  H 3   d 3     -0.00000  -0.00001  -0.00003   0.00000   0.00000  -0.00000
 313  H 3   d 4      0.00000  -0.00000   0.00015   0.00000   0.00000   0.00000
 314  H 3   d 5     -0.00000  -0.00000  -0.00008  -0.00000   0.00000  -0.00000
 315  H 3   d 1      0.00000   0.00000   0.00052  -0.00000  -0.00000   0.00000
 316  H 3   d 2     -0.00000  -0.00002  -0.00045  -0.00000   0.00000  -0.00000
 317  H 3   d 3      0.00000   0.00004   0.00031  -0.00000  -0.00000   0.00001
 318  H 3   d 4     -0.00001  -0.00000  -0.00222  -0.00001   0.00000  -0.00001
 319  H 3   d 5      0.00000  -0.00000   0.00126   0.00001  -0.00000   0.00000
 320  H 3   d 1      0.00001   0.00001   0.00060   0.00001  -0.00000   0.00001
 321  H 3   d 2     -0.00000   0.00001  -0.00048  -0.00000   0.00000  -0.00003
 322  H 3   d 3     -0.00000  -0.00000   0.00027  -0.00000  -0.00000   0.00006
 323  H 3   d 4     -0.00002  -0.00002  -0.00258  -0.00003   0.00001  -0.00004
 324  H 3   d 5      0.00001  -0.00003   0.00148   0.00002   0.00000  -0.00003
 325  H 3   f 1     -0.00000  -0.00000  -0.00006  -0.00000   0.00000  -0.00000
 326  H 3   f 2      0.00000  -0.00000   0.00009  -0.00000   0.00000   0.00000
 327  H 3   f 3     -0.00000  -0.00000  -0.00003  -0.00000   0.00000   0.00000
 328  H 3   f 4     -0.00000   0.00000  -0.00009  -0.00000   0.00000  -0.00000
 329  H 3   f 5     -0.00000  -0.00000  -0.00015  -0.00000   0.00000  -0.00000
 330  H 3   f 6      0.00000   0.00000   0.00021   0.00000   0.00000   0.00000
 331  H 3   f 7      0.00000   0.00000  -0.00009  -0.00000  -0.00000  -0.00000
 332  H 3   f 1     -0.00000   0.00000  -0.00030  -0.00000   0.00000   0.00000
 333  H 3   f 2      0.00000   0.00001   0.00041   0.00000  -0.00000   0.00001
 334  H 3   f 3     -0.00000   0.00000  -0.00014   0.00000  -0.00000  -0.00001
 335  H 3   f 4     -0.00000  -0.00000  -0.00043  -0.00000  -0.00000   0.00001
 336  H 3   f 5     -0.00000  -0.00002  -0.00067  -0.00000   0.00000  -0.00001
 337  H 3   f 6      0.00000  -0.00000   0.00102   0.00001  -0.00000  -0.00000
 338  H 3   f 7     -0.00000   0.00000  -0.00046  -0.00000  -0.00000   0.00001
 339  H 3   g 1      0.00000  -0.00000   0.00003   0.00000  -0.00000  -0.00000
 340  H 3   g 2     -0.00000  -0.00000  -0.00007  -0.00000   0.00000  -0.00000
 341  H 3   g 3      0.00000   0.00000   0.00005   0.00000  -0.00000   0.00000
 342  H 3   g 4      0.00000   0.00000  -0.00000   0.00000   0.00000  -0.00000
 343  H 3   g 5     -0.00000  -0.00000  -0.00007  -0.00000   0.00000  -0.00000
 344  H 3   g 6     -0.00000  -0.00000   0.00001   0.00000   0.00000  -0.00000
 345  H 3   g 7      0.00000   0.00000   0.00011   0.00000  -0.00000   0.00000
 346  H 3   g 8     -0.00000   0.00000  -0.00010  -0.00000  -0.00000   0.00000
 347  H 3   g 9      0.00000  -0.00000   0.00003   0.00000   0.00000  -0.00000
 348  H 4   s        0.00000  -0.00000  -0.00023  -0.00000   0.00000  -0.00002
 349  H 4   s       -0.00000   0.00003  -0.00139   0.00000   0.00000  -0.00006
 350  H 4   s       -0.00001   0.00017   0.00991   0.00004  -0.00005   0.00004
 351  H 4   s       -0.00002  -0.00014   0.00207   0.00001  -0.00006   0.00037
 352  H 4   s        0.00001  -0.00002   0.00013  -0.00001  -0.00000  -0.00005
 353  H 4   px       0.00000  -0.00000  -0.00017   0.00000  -0.00000  -0.00000
 354  H 4   py       0.00000   0.00000  -0.00002   0.00000  -0.00000   0.00000
 355  H 4   pz       0.00000   0.00000  -0.00013  -0.00000   0.00000  -0.00000
 356  H 4   px      -0.00000   0.00002   0.00017   0.00000   0.00000  -0.00001
 357  H 4   py      -0.00000  -0.00001   0.00002  -0.00000   0.00000  -0.00000
 358  H 4   pz      -0.00000   0.00000   0.00008   0.00000   0.00000  -0.00001
 359  H 4   px      -0.00001  -0.00002   0.00618   0.00001  -0.00002   0.00004
 360  H 4   py       0.00001   0.00002   0.00071   0.00001  -0.00001   0.00001
 361  H 4   pz      -0.00000   0.00004   0.00501   0.00001  -0.00002   0.00002
 362  H 4   px      -0.00001  -0.00007   0.00194  -0.00001  -0.00003   0.00014
 363  H 4   py       0.00000   0.00002   0.00024  -0.00000  -0.00000   0.00002
 364  H 4   pz      -0.00000  -0.00003   0.00154   0.00001  -0.00001   0.00008
 365  H 4   d 1     -0.00000   0.00000  -0.00002  -0.00000   0.00000  -0.00000
 366  H 4   d 2      0.00000   0.00000  -0.00002  -0.00000   0.00000   0.00000
 367  H 4   d 3     -0.00000  -0.00000  -0.00003  -0.00000   0.00000   0.00000
 368  H 4   d 4      0.00000   0.00000  -0.00016   0.00000   0.00000  -0.00000
 369  H 4   d 5     -0.00000   0.00000  -0.00009  -0.00000   0.00000  -0.00000
 370  H 4   d 1      0.00000  -0.00000   0.00031   0.00000  -0.00000  -0.00000
 371  H 4   d 2     -0.00000  -0.00000   0.00025   0.00000  -0.00000  -0.00000
 372  H 4   d 3      0.00000   0.00000   0.00024   0.00000  -0.00000  -0.00000
 373  H 4   d 4     -0.00000   0.00000   0.00218   0.00000  -0.00000   0.00000
 374  H 4   d 5     -0.00000  -0.00001   0.00134   0.00000  -0.00000   0.00000
 375  H 4   d 1      0.00000   0.00001   0.00037  -0.00000  -0.00000   0.00001
 376  H 4   d 2      0.00000   0.00001   0.00030   0.00000  -0.00000   0.00000
 377  H 4   d 3      0.00000   0.00002   0.00020   0.00001   0.00000  -0.00001
 378  H 4   d 4     -0.00000  -0.00004   0.00256  -0.00000  -0.00001   0.00002
 379  H 4   d 5     -0.00000  -0.00005   0.00155  -0.00001  -0.00001   0.00003
 380  H 4   f 1     -0.00000  -0.00000   0.00004   0.00000  -0.00000  -0.00000
 381  H 4   f 2     -0.00000  -0.00000   0.00005   0.00000  -0.00000  -0.00000
 382  H 4   f 3     -0.00000  -0.00000   0.00002   0.00000  -0.00000   0.00000
 383  H 4   f 4      0.00000   0.00000  -0.00010  -0.00000   0.00000   0.00000
 384  H 4   f 5      0.00000   0.00000   0.00014   0.00000  -0.00000  -0.00000
 385  H 4   f 6     -0.00000   0.00000   0.00022   0.00000  -0.00000   0.00000
 386  H 4   f 7     -0.00000   0.00000   0.00011   0.00000   0.00000  -0.00000
 387  H 4   f 1      0.00000  -0.00000   0.00019   0.00000  -0.00000   0.00000
 388  H 4   f 2      0.00000   0.00000   0.00025   0.00000  -0.00000  -0.00000
 389  H 4   f 3      0.00000   0.00000   0.00007   0.00000  -0.00000  -0.00000
 390  H 4   f 4      0.00000   0.00001  -0.00046   0.00000   0.00000  -0.00000
 391  H 4   f 5      0.00000   0.00000   0.00064   0.00000  -0.00000  -0.00000
 392  H 4   f 6     -0.00000  -0.00002   0.00107  -0.00000  -0.00000   0.00000
 393  H 4   f 7     -0.00000  -0.00001   0.00053  -0.00000  -0.00000   0.00000
 394  H 4   g 1      0.00000  -0.00000   0.00002   0.00000  -0.00000   0.00000
 395  H 4   g 2      0.00000  -0.00000   0.00004   0.00000  -0.00000  -0.00000
 396  H 4   g 3      0.00000  -0.00000   0.00003   0.00000  -0.00000  -0.00000
 397  H 4   g 4     -0.00000  -0.00000  -0.00000   0.00000   0.00000  -0.00000
 398  H 4   g 5      0.00000   0.00000  -0.00007  -0.00000   0.00000   0.00000
 399  H 4   g 6      0.00000   0.00000  -0.00002   0.00000   0.00000  -0.00000
 400  H 4   g 7      0.00000  -0.00000   0.00012   0.00000  -0.00000  -0.00000
 401  H 4   g 8     -0.00000  -0.00000   0.00012  -0.00000  -0.00000   0.00000
 402  H 4   g 9     -0.00000  -0.00000   0.00005  -0.00000  -0.00000   0.00000
 403  O 3   s        0.00000  -0.00001   0.00000   0.00031   0.97855   0.00021
 404  O 3   s        0.00001  -0.00001   0.00000   0.00000   0.03102  -0.00335
 405  O 3   s        0.00001  -0.00001   0.00000   0.00003   0.08520  -0.00013
 406  O 3   s       -0.00009   0.00006   0.00000  -0.00008  -0.01546  -0.00390
 407  O 3   s        0.00049  -0.00055  -0.00012   0.00035  -0.01886  -0.00331
 408  O 3   s        0.00069  -0.00103  -0.00011  -0.00012  -0.00270  -0.00047
 409  O 3   px      -0.00000   0.00000   0.00000  -0.00001  -0.00048   0.00007
 410  O 3   py       0.00000   0.00000  -0.00000   0.00000   0.00099  -0.00035
 411  O 3   pz       0.00000   0.00000  -0.00000   0.00000   0.00041  -0.00006
 412  O 3   px       0.00003  -0.00001  -0.00000   0.00003  -0.00034   0.00008
 413  O 3   py       0.00001   0.00001   0.00000  -0.00003   0.00049  -0.00066
 414  O 3   pz      -0.00001   0.00000   0.00000   0.00000   0.00028  -0.00007
 415  O 3   px      -0.00027   0.00006   0.00003  -0.00008   0.00479   0.00050
 416  O 3   py      -0.00014  -0.00008  -0.00001   0.00010  -0.00698  -0.00025
 417  O 3   pz       0.00015  -0.00003  -0.00002  -0.00007  -0.00382  -0.00032
 418  O 3   px      -0.00058   0.00031   0.00007   0.00026   0.00103   0.00131
 419  O 3   py      -0.00024  -0.00067  -0.00004   0.00038  -0.00053   0.00057
 420  O 3   pz       0.00044  -0.00018  -0.00003  -0.00024  -0.00101  -0.00029
 421  O 3   px      -0.00008  -0.00000   0.00001   0.00006   0.00009   0.00070
 422  O 3   py       0.00003  -0.00018  -0.00001   0.00005  -0.00002   0.00038
 423  O 3   pz       0.00005  -0.00002  -0.00001  -0.00005  -0.00008  -0.00035
 424  O 3   d 1      0.00000   0.00000   0.00000   0.00000   0.00012  -0.00000
 425  O 3   d 2     -0.00000  -0.00000  -0.00000  -0.00000  -0.00003   0.00000
 426  O 3   d 3      0.00000   0.00000   0.00000  -0.00000  -0.00015   0.00000
 427  O 3   d 4      0.00000  -0.00000  -0.00000  -0.00000  -0.00022   0.00000
 428  O 3   d 5     -0.00000   0.00000   0.00000  -0.00000  -0.00001   0.00001
 429  O 3   d 1     -0.00000  -0.00002  -0.00000  -0.00001  -0.00016  -0.00002
 430  O 3   d 2      0.00000   0.00001   0.00000   0.00000   0.00002   0.00000
 431  O 3   d 3      0.00000  -0.00001  -0.00000   0.00001   0.00026   0.00003
 432  O 3   d 4      0.00000   0.00000   0.00000   0.00001   0.00038   0.00003
 433  O 3   d 5      0.00000  -0.00002  -0.00000  -0.00000   0.00002   0.00001
 434  O 3   d 1     -0.00001   0.00007   0.00001  -0.00001  -0.00206   0.00014
 435  O 3   d 2      0.00001  -0.00004  -0.00000   0.00000   0.00074  -0.00006
 436  O 3   d 3      0.00003   0.00004   0.00001  -0.00011   0.00165  -0.00007
 437  O 3   d 4     -0.00009  -0.00000   0.00001   0.00005   0.00282   0.00007
 438  O 3   d 5      0.00013   0.00009  -0.00001   0.00002  -0.00049  -0.00019
 439  O 3   d 1      0.00004   0.00024   0.00003   0.00003   0.00001   0.00044
 440  O 3   d 2      0.00005  -0.00015  -0.00001   0.00002  -0.00003   0.00002
 441  O 3   d 3     -0.00003   0.00007   0.00000  -0.00013  -0.00034  -0.00008
 442  O 3   d 4     -0.00013  -0.00005   0.00000   0.00008  -0.00034   0.00020
 443  O 3   d 5      0.00018   0.00022   0.00001  -0.00009  -0.00024  -0.00018
 444  O 3   f 1     -0.00000  -0.00000   0.00000  -0.00000  -0.00003   0.00001
 445  O 3   f 2     -0.00000  -0.00000  -0.00000   0.00000  -0.00002   0.00000
 446  O 3   f 3     -0.00000  -0.00000   0.00000  -0.00000  -0.00006   0.00000
 447  O 3   f 4      0.00000   0.00000  -0.00000  -0.00000  -0.00003  -0.00000
 448  O 3   f 5      0.00000  -0.00000   0.00000  -0.00001  -0.00005  -0.00000
 449  O 3   f 6     -0.00000   0.00000   0.00000   0.00000   0.00011  -0.00000
 450  O 3   f 7      0.00000  -0.00000  -0.00000   0.00000  -0.00014   0.00000
 451  O 3   f 1      0.00001   0.00001  -0.00000   0.00002   0.00029  -0.00004
 452  O 3   f 2      0.00001   0.00000   0.00000  -0.00002   0.00013  -0.00001
 453  O 3   f 3      0.00001   0.00001  -0.00000   0.00000   0.00047  -0.00001
 454  O 3   f 4     -0.00001  -0.00000   0.00000   0.00000   0.00027   0.00003
 455  O 3   f 5     -0.00001   0.00000  -0.00000   0.00004   0.00038   0.00001
 456  O 3   f 6      0.00001  -0.00000  -0.00000  -0.00001  -0.00089  -0.00000
 457  O 3   f 7     -0.00001   0.00001   0.00000  -0.00001   0.00115   0.00001
 458  O 3   f 1      0.00001   0.00006  -0.00000   0.00002  -0.00013   0.00003
 459  O 3   f 2      0.00002   0.00000   0.00000  -0.00005  -0.00016   0.00003
 460  O 3   f 3     -0.00002   0.00002  -0.00000  -0.00002  -0.00022  -0.00001
 461  O 3   f 4     -0.00003   0.00003   0.00000   0.00000  -0.00008   0.00001
 462  O 3   f 5     -0.00001  -0.00003  -0.00000   0.00005  -0.00012  -0.00002
 463  O 3   f 6      0.00001   0.00004   0.00000  -0.00002   0.00033  -0.00008
 464  O 3   f 7     -0.00003  -0.00009  -0.00001  -0.00004  -0.00040  -0.00005
 465  O 3   g 1      0.00000   0.00000   0.00000  -0.00000   0.00009  -0.00000
 466  O 3   g 2      0.00000  -0.00000  -0.00000  -0.00000  -0.00002   0.00000
 467  O 3   g 3      0.00000   0.00000   0.00000   0.00000   0.00004  -0.00000
 468  O 3   g 4      0.00000  -0.00000  -0.00000   0.00000  -0.00003   0.00000
 469  O 3   g 5     -0.00000   0.00000   0.00000  -0.00000   0.00000   0.00000
 470  O 3   g 6      0.00000   0.00000  -0.00000   0.00000  -0.00006  -0.00000
 471  O 3   g 7     -0.00000  -0.00000  -0.00000   0.00000  -0.00010   0.00000
 472  O 3   g 8     -0.00000   0.00000   0.00000  -0.00000   0.00006   0.00000
 473  O 3   g 9      0.00000  -0.00000  -0.00000   0.00000  -0.00006   0.00000
 474  O 3   g 1     -0.00000  -0.00001  -0.00000  -0.00002  -0.00006   0.00001
 475  O 3   g 2     -0.00001  -0.00000  -0.00000   0.00002   0.00011  -0.00002
 476  O 3   g 3     -0.00000  -0.00000  -0.00000  -0.00001  -0.00001   0.00001
 477  O 3   g 4     -0.00000   0.00001   0.00000  -0.00000  -0.00005  -0.00000
 478  O 3   g 5      0.00000  -0.00001   0.00000   0.00002   0.00002  -0.00000
 479  O 3   g 6     -0.00000  -0.00000  -0.00000   0.00002  -0.00007  -0.00000
 480  O 3   g 7      0.00001  -0.00000   0.00000  -0.00003   0.00001  -0.00001
 481  O 3   g 8     -0.00001  -0.00000  -0.00000   0.00002  -0.00002   0.00001
 482  O 3   g 9     -0.00001  -0.00001   0.00000  -0.00000   0.00008  -0.00001
 483  O 3   h 1     -0.00000  -0.00000  -0.00000   0.00000   0.00004  -0.00000
 484  O 3   h 2     -0.00000   0.00000   0.00000  -0.00000  -0.00004   0.00000
 485  O 3   h 3     -0.00000  -0.00000  -0.00000   0.00000  -0.00000  -0.00000
 486  O 3   h 4     -0.00000   0.00000  -0.00000   0.00000  -0.00002   0.00000
 487  O 3   h 5      0.00000  -0.00000   0.00000  -0.00000  -0.00003  -0.00000
 488  O 3   h 6      0.00000  -0.00000  -0.00000   0.00000   0.00001   0.00000
 489  O 3   h 7      0.00000   0.00000   0.00000  -0.00000  -0.00006  -0.00000
 490  O 3   h 8      0.00000  -0.00000   0.00000  -0.00000   0.00003   0.00000
 491  O 3   h 9      0.00000  -0.00000  -0.00000   0.00000   0.00001   0.00000
 492  O 3   h10      0.00000   0.00000   0.00000  -0.00000  -0.00006  -0.00000
 493  O 3   h11      0.00000  -0.00000   0.00000  -0.00000  -0.00002   0.00000
 494  H 5   s        0.00000   0.00000   0.00000  -0.00001  -0.00027  -0.00027
 495  H 5   s        0.00007  -0.00005  -0.00002   0.00004  -0.00155  -0.00061
 496  H 5   s       -0.00096   0.00009   0.00009   0.00025   0.01284  -0.00015
 497  H 5   s       -0.00085   0.00050   0.00009  -0.00008   0.00270   0.00082
 498  H 5   s        0.00010  -0.00007  -0.00001   0.00009  -0.00003   0.00069
 499  H 5   px       0.00000   0.00000  -0.00000  -0.00001  -0.00019  -0.00002
 500  H 5   py       0.00000  -0.00000   0.00000   0.00000   0.00001  -0.00000
 501  H 5   pz      -0.00000  -0.00000   0.00000  -0.00000   0.00013   0.00001
 502  H 5   px       0.00001  -0.00003  -0.00000   0.00003   0.00025  -0.00006
 503  H 5   py      -0.00001   0.00000  -0.00000  -0.00000   0.00001  -0.00001
 504  H 5   pz      -0.00001   0.00002   0.00000  -0.00002  -0.00017   0.00004
 505  H 5   px      -0.00038   0.00011   0.00003  -0.00001   0.00849   0.00010
 506  H 5   py       0.00007   0.00006   0.00002  -0.00010  -0.00069   0.00002
 507  H 5   pz       0.00025  -0.00007  -0.00003   0.00019  -0.00528  -0.00007
 508  H 5   px      -0.00041   0.00020   0.00007   0.00037   0.00265   0.00026
 509  H 5   py      -0.00001   0.00025   0.00003  -0.00011  -0.00018   0.00004
 510  H 5   pz       0.00027  -0.00012  -0.00005  -0.00009  -0.00163  -0.00023
 511  H 5   d 1     -0.00000  -0.00000  -0.00000   0.00001   0.00001  -0.00000
 512  H 5   d 2      0.00000  -0.00000  -0.00000  -0.00001  -0.00001   0.00000
 513  H 5   d 3      0.00000  -0.00000  -0.00000   0.00002   0.00001   0.00000
 514  H 5   d 4     -0.00000   0.00000   0.00000   0.00001   0.00013   0.00001
 515  H 5   d 5      0.00000  -0.00000  -0.00000  -0.00002  -0.00008  -0.00001
 516  H 5   d 1      0.00002   0.00001   0.00000  -0.00006  -0.00024   0.00002
 517  H 5   d 2     -0.00000   0.00000   0.00000   0.00006   0.00018  -0.00001
 518  H 5   d 3      0.00001   0.00001   0.00000  -0.00011  -0.00024   0.00000
 519  H 5   d 4      0.00005  -0.00001  -0.00001  -0.00002  -0.00232  -0.00001
 520  H 5   d 5     -0.00005   0.00001   0.00001   0.00011   0.00174   0.00001
 521  H 5   d 1      0.00002   0.00009   0.00002  -0.00002  -0.00039   0.00001
 522  H 5   d 2     -0.00001  -0.00007  -0.00001  -0.00002   0.00023  -0.00002
 523  H 5   d 3      0.00001  -0.00003  -0.00000   0.00001  -0.00035   0.00002
 524  H 5   d 4      0.00014  -0.00008  -0.00002   0.00016  -0.00293  -0.00005
 525  H 5   d 5     -0.00010   0.00002   0.00001  -0.00011   0.00243   0.00003
 526  H 5   f 1      0.00000  -0.00000  -0.00000  -0.00000  -0.00005   0.00000
 527  H 5   f 2     -0.00000   0.00000   0.00000  -0.00000   0.00004  -0.00000
 528  H 5   f 3     -0.00000  -0.00000   0.00000  -0.00000  -0.00001   0.00000
 529  H 5   f 4     -0.00000  -0.00000   0.00000  -0.00000   0.00014  -0.00000
 530  H 5   f 5     -0.00000   0.00000   0.00000  -0.00000   0.00007  -0.00000
 531  H 5   f 6      0.00000  -0.00000  -0.00000   0.00001  -0.00025   0.00000
 532  H 5   f 7     -0.00000   0.00000   0.00000  -0.00000   0.00015   0.00000
 533  H 5   f 1      0.00001   0.00002   0.00000  -0.00004  -0.00011   0.00001
 534  H 5   f 2     -0.00000  -0.00002  -0.00000   0.00004   0.00018  -0.00000
 535  H 5   f 3     -0.00000   0.00000  -0.00000   0.00000  -0.00001  -0.00000
 536  H 5   f 4     -0.00001   0.00002   0.00000   0.00004   0.00072   0.00000
 537  H 5   f 5     -0.00001   0.00000   0.00000  -0.00007   0.00034   0.00001
 538  H 5   f 6      0.00003  -0.00001  -0.00000  -0.00002  -0.00116  -0.00001
 539  H 5   f 7     -0.00002  -0.00001  -0.00000   0.00006   0.00071   0.00001
 540  H 5   g 1      0.00000   0.00000   0.00000  -0.00000  -0.00002   0.00000
 541  H 5   g 2     -0.00000  -0.00000  -0.00000   0.00001   0.00003  -0.00000
 542  H 5   g 3     -0.00000   0.00000   0.00000  -0.00000  -0.00001  -0.00000
 543  H 5   g 4      0.00000   0.00000   0.00000  -0.00000  -0.00001   0.00000
 544  H 5   g 5      0.00000  -0.00000  -0.00000   0.00000  -0.00007  -0.00000
 545  H 5   g 6     -0.00000   0.00000   0.00000   0.00001   0.00007  -0.00000
 546  H 5   g 7     -0.00000   0.00000   0.00000  -0.00001   0.00007   0.00000
 547  H 5   g 8      0.00000  -0.00000  -0.00000  -0.00000  -0.00012  -0.00000
 548  H 5   g 9     -0.00000  -0.00000  -0.00000   0.00001   0.00006   0.00000
 549  H 6   s       -0.00000   0.00000   0.00000   0.00000  -0.00021  -0.00049
 550  H 6   s       -0.00004  -0.00006  -0.00001   0.00001  -0.00168  -0.00075
 551  H 6   s        0.00035   0.00035   0.00001  -0.00045   0.01019  -0.00384
 552  H 6   s        0.00017   0.00068   0.00002  -0.00017   0.00153  -0.00303
 553  H 6   s       -0.00008   0.00006  -0.00000  -0.00003   0.00002  -0.00116
 554  H 6   px       0.00000  -0.00000  -0.00000   0.00000   0.00007   0.00000
 555  H 6   py      -0.00001   0.00000  -0.00000  -0.00000   0.00020   0.00000
 556  H 6   pz       0.00000   0.00000   0.00000  -0.00000  -0.00002   0.00000
 557  H 6   px      -0.00000   0.00003   0.00000   0.00000  -0.00003   0.00005
 558  H 6   py       0.00004  -0.00001   0.00000   0.00000  -0.00005   0.00002
 559  H 6   pz      -0.00001  -0.00001  -0.00000   0.00000   0.00001   0.00000
 560  H 6   px      -0.00010  -0.00028  -0.00002   0.00004  -0.00261   0.00030
 561  H 6   py      -0.00025  -0.00004  -0.00000   0.00017  -0.00786   0.00092
 562  H 6   pz      -0.00001   0.00012   0.00001  -0.00000   0.00079  -0.00011
 563  H 6   px      -0.00017  -0.00034  -0.00001   0.00003  -0.00069   0.00036
 564  H 6   py      -0.00013  -0.00024  -0.00001   0.00007  -0.00233   0.00098
 565  H 6   pz      -0.00003   0.00014   0.00000  -0.00002   0.00034  -0.00007
 566  H 6   d 1     -0.00001   0.00000  -0.00000   0.00000  -0.00010   0.00001
 567  H 6   d 2     -0.00000  -0.00000  -0.00000  -0.00000   0.00002   0.00001
 568  H 6   d 3      0.00001   0.00000   0.00000   0.00000   0.00010  -0.00000
 569  H 6   d 4      0.00001  -0.00000   0.00000  -0.00000   0.00002  -0.00000
 570  H 6   d 5     -0.00000   0.00000   0.00000   0.00000   0.00014   0.00001
 571  H 6   d 1      0.00005   0.00002   0.00000  -0.00001   0.00136  -0.00017
 572  H 6   d 2      0.00001  -0.00001   0.00000  -0.00000  -0.00036  -0.00001
 573  H 6   d 3     -0.00005  -0.00001  -0.00000   0.00001  -0.00132   0.00012
 574  H 6   d 4     -0.00002  -0.00001  -0.00000   0.00000  -0.00018   0.00002
 575  H 6   d 5     -0.00001  -0.00000  -0.00000   0.00002  -0.00182   0.00010
 576  H 6   d 1      0.00007   0.00021   0.00001   0.00002   0.00167  -0.00010
 577  H 6   d 2      0.00001  -0.00009  -0.00001  -0.00002  -0.00056   0.00031
 578  H 6   d 3     -0.00001  -0.00003  -0.00000   0.00002  -0.00155   0.00021
 579  H 6   d 4      0.00003  -0.00007  -0.00000  -0.00000  -0.00016   0.00004
 580  H 6   d 5     -0.00004   0.00012   0.00000   0.00003  -0.00222   0.00055
 581  H 6   f 1      0.00000   0.00000   0.00000  -0.00000   0.00014  -0.00001
 582  H 6   f 2     -0.00000   0.00000  -0.00000   0.00000   0.00003  -0.00000
 583  H 6   f 3     -0.00000  -0.00000  -0.00000  -0.00000   0.00018  -0.00001
 584  H 6   f 4      0.00000  -0.00000  -0.00000   0.00000  -0.00004   0.00001
 585  H 6   f 5      0.00000   0.00000   0.00000   0.00000   0.00006  -0.00000
 586  H 6   f 6     -0.00000  -0.00000   0.00000  -0.00000  -0.00004   0.00001
 587  H 6   f 7      0.00000   0.00000   0.00000  -0.00000   0.00020  -0.00001
 588  H 6   f 1     -0.00000  -0.00005  -0.00000  -0.00001   0.00065  -0.00001
 589  H 6   f 2      0.00001   0.00003   0.00000   0.00001   0.00022  -0.00003
 590  H 6   f 3      0.00003   0.00000   0.00000   0.00000   0.00085  -0.00007
 591  H 6   f 4     -0.00001  -0.00001  -0.00000  -0.00001  -0.00018  -0.00001
 592  H 6   f 5      0.00000   0.00001   0.00000  -0.00000   0.00029  -0.00002
 593  H 6   f 6      0.00001  -0.00000   0.00000  -0.00000  -0.00020  -0.00004
 594  H 6   f 7      0.00003   0.00002   0.00000   0.00001   0.00096  -0.00011
 595  H 6   g 1     -0.00000   0.00000   0.00000  -0.00000  -0.00014   0.00001
 596  H 6   g 2     -0.00000  -0.00000  -0.00000   0.00000   0.00002   0.00000
 597  H 6   g 3     -0.00000  -0.00000  -0.00000  -0.00000  -0.00007   0.00001
 598  H 6   g 4      0.00000   0.00000   0.00000   0.00000   0.00004  -0.00000
 599  H 6   g 5      0.00000   0.00000   0.00000  -0.00000   0.00008  -0.00000
 600  H 6   g 6      0.00000   0.00000   0.00000   0.00000   0.00001  -0.00000
 601  H 6   g 7      0.00000  -0.00000   0.00000  -0.00000   0.00009  -0.00000
 602  H 6   g 8      0.00000   0.00000   0.00000   0.00000   0.00004  -0.00000
 603  H 6   g 9     -0.00000  -0.00001  -0.00000  -0.00000   0.00004   0.00000
 604  O 4   s        0.97844  -0.00004   0.00000  -0.00000   0.00001   0.01861
 605  O 4   s        0.03085  -0.00003   0.00000  -0.00000   0.00001  -0.28450
 606  O 4   s        0.08492  -0.00004   0.00000   0.00000   0.00002  -0.00779
 607  O 4   s       -0.01519   0.00033  -0.00002   0.00001   0.00005  -0.32620
 608  O 4   s       -0.01305  -0.00134   0.00011  -0.00016  -0.00058  -0.44517
 609  O 4   s       -0.00303  -0.00113   0.00008  -0.00024  -0.00206  -0.17428
 610  O 4   px      -0.00076   0.00001  -0.00000   0.00000   0.00000   0.01381
 611  O 4   py       0.00033   0.00000  -0.00000   0.00000   0.00000  -0.00521
 612  O 4   pz      -0.00088   0.00001   0.00000  -0.00000  -0.00000   0.01761
 613  O 4   px      -0.00024  -0.00003   0.00001  -0.00001  -0.00002   0.02265
 614  O 4   py       0.00016  -0.00000   0.00001   0.00000  -0.00002  -0.00851
 615  O 4   pz      -0.00052  -0.00007  -0.00000   0.00001  -0.00000   0.02862
 616  O 4   px       0.00435   0.00013  -0.00002   0.00003   0.00009   0.03786
 617  O 4   py      -0.00156  -0.00008  -0.00005  -0.00003   0.00004  -0.01498
 618  O 4   pz       0.00682   0.00020  -0.00002  -0.00001   0.00006   0.04946
 619  O 4   px       0.00092   0.00008  -0.00003   0.00002   0.00045   0.02964
 620  O 4   py       0.00011   0.00008  -0.00009  -0.00025  -0.00002  -0.00977
 621  O 4   pz      -0.00014   0.00099  -0.00011  -0.00001   0.00034   0.03101
 622  O 4   px       0.00032   0.00005   0.00000   0.00001   0.00026   0.00468
 623  O 4   py      -0.00024  -0.00006  -0.00002  -0.00004  -0.00036  -0.00112
 624  O 4   pz      -0.00003  -0.00002  -0.00006   0.00007   0.00013   0.00307
 625  O 4   d 1     -0.00006   0.00000   0.00000   0.00000   0.00000   0.00006
 626  O 4   d 2      0.00013  -0.00000  -0.00000  -0.00000  -0.00000  -0.00011
 627  O 4   d 3     -0.00001  -0.00000   0.00000   0.00000  -0.00000  -0.00004
 628  O 4   d 4      0.00012   0.00000  -0.00000   0.00000  -0.00000  -0.00019
 629  O 4   d 5     -0.00020   0.00000  -0.00000  -0.00000  -0.00001   0.00014
 630  O 4   d 1      0.00008  -0.00000  -0.00000  -0.00000  -0.00001   0.00055
 631  O 4   d 2     -0.00020   0.00002  -0.00000  -0.00000   0.00002  -0.00100
 632  O 4   d 3     -0.00001   0.00002  -0.00000  -0.00000   0.00000  -0.00002
 633  O 4   d 4     -0.00021   0.00001   0.00000  -0.00000   0.00000  -0.00135
 634  O 4   d 5      0.00031  -0.00001  -0.00000   0.00000   0.00002   0.00158
 635  O 4   d 1      0.00053   0.00003   0.00001   0.00002   0.00004   0.00264
 636  O 4   d 2     -0.00186  -0.00010   0.00002   0.00001  -0.00009  -0.00490
 637  O 4   d 3      0.00037  -0.00004   0.00002   0.00001   0.00001   0.00006
 638  O 4   d 4     -0.00128  -0.00008   0.00000   0.00001  -0.00003  -0.00603
 639  O 4   d 5      0.00241   0.00014   0.00001   0.00000  -0.00003   0.00768
 640  O 4   d 1     -0.00012   0.00002   0.00000   0.00009   0.00004   0.00135
 641  O 4   d 2      0.00032  -0.00023   0.00003  -0.00000  -0.00008  -0.00292
 642  O 4   d 3      0.00010  -0.00025   0.00000   0.00003   0.00018   0.00094
 643  O 4   d 4      0.00083  -0.00018   0.00005  -0.00002  -0.00007  -0.00169
 644  O 4   d 5     -0.00085   0.00027  -0.00000   0.00005   0.00021   0.00474
 645  O 4   f 1     -0.00003  -0.00000  -0.00000  -0.00000   0.00000   0.00000
 646  O 4   f 2     -0.00005  -0.00000   0.00000   0.00000  -0.00000   0.00002
 647  O 4   f 3     -0.00013  -0.00000   0.00000   0.00000  -0.00000   0.00004
 648  O 4   f 4      0.00004   0.00000   0.00000  -0.00000   0.00000   0.00001
 649  O 4   f 5     -0.00001   0.00001   0.00000  -0.00000  -0.00000   0.00000
 650  O 4   f 6      0.00006  -0.00000  -0.00000   0.00000   0.00000  -0.00003
 651  O 4   f 7      0.00011   0.00000   0.00000  -0.00000  -0.00000  -0.00001
 652  O 4   f 1      0.00026   0.00002   0.00000   0.00001  -0.00001   0.00057
 653  O 4   f 2      0.00037   0.00001  -0.00000  -0.00001   0.00001   0.00059
 654  O 4   f 3      0.00105   0.00002  -0.00000  -0.00000   0.00001   0.00218
 655  O 4   f 4     -0.00026  -0.00001  -0.00000   0.00000  -0.00001  -0.00056
 656  O 4   f 5      0.00012  -0.00002  -0.00000   0.00000   0.00000   0.00051
 657  O 4   f 6     -0.00048   0.00000   0.00000  -0.00000  -0.00001  -0.00100
 658  O 4   f 7     -0.00081  -0.00002  -0.00000   0.00000  -0.00000  -0.00173
 659  O 4   f 1     -0.00018  -0.00006   0.00000  -0.00002  -0.00010   0.00061
 660  O 4   f 2     -0.00012   0.00007  -0.00001   0.00001   0.00001   0.00082
 661  O 4   f 3     -0.00048   0.00009  -0.00001   0.00001  -0.00002   0.00286
 662  O 4   f 4      0.00019   0.00001   0.00000   0.00000  -0.00009  -0.00060
 663  O 4   f 5     -0.00013   0.00013   0.00000  -0.00001  -0.00004   0.00079
 664  O 4   f 6      0.00016  -0.00014  -0.00001   0.00001  -0.00007  -0.00203
 665  O 4   f 7      0.00040  -0.00004   0.00001  -0.00002  -0.00010  -0.00227
 666  O 4   g 1     -0.00007  -0.00001  -0.00000  -0.00000  -0.00000  -0.00007
 667  O 4   g 2     -0.00001   0.00000   0.00000   0.00000  -0.00000  -0.00003
 668  O 4   g 3     -0.00011   0.00000  -0.00000  -0.00000  -0.00000  -0.00014
 669  O 4   g 4     -0.00008  -0.00000   0.00000  -0.00000  -0.00000  -0.00011
 670  O 4   g 5      0.00001  -0.00001  -0.00000   0.00000  -0.00000   0.00000
 671  O 4   g 6     -0.00001   0.00000   0.00000   0.00000  -0.00000  -0.00001
 672  O 4   g 7      0.00001   0.00001  -0.00000  -0.00000  -0.00000   0.00003
 673  O 4   g 8      0.00009  -0.00001  -0.00000   0.00000  -0.00000   0.00009
 674  O 4   g 9     -0.00001   0.00000   0.00000  -0.00000  -0.00000   0.00001
 675  O 4   g 1      0.00001   0.00002   0.00000   0.00000   0.00001  -0.00047
 676  O 4   g 2      0.00008  -0.00001  -0.00000  -0.00000   0.00002  -0.00010
 677  O 4   g 3     -0.00002  -0.00002   0.00000   0.00000   0.00000  -0.00079
 678  O 4   g 4      0.00006  -0.00002  -0.00000   0.00000   0.00002  -0.00063
 679  O 4   g 5      0.00002   0.00004  -0.00000  -0.00000   0.00001   0.00015
 680  O 4   g 6     -0.00000  -0.00004   0.00000  -0.00000   0.00002  -0.00009
 681  O 4   g 7      0.00003  -0.00000   0.00000  -0.00000   0.00002  -0.00000
 682  O 4   g 8     -0.00001   0.00004   0.00000  -0.00000   0.00002   0.00076
 683  O 4   g 9     -0.00004  -0.00002  -0.00000   0.00000   0.00002   0.00002
 684  O 4   h 1      0.00000  -0.00000  -0.00000   0.00000   0.00000   0.00003
 685  O 4   h 2     -0.00002  -0.00000   0.00000  -0.00000  -0.00000   0.00002
 686  O 4   h 3     -0.00003   0.00000  -0.00000  -0.00000   0.00000  -0.00002
 687  O 4   h 4      0.00004   0.00001   0.00000   0.00000  -0.00000   0.00016
 688  O 4   h 5     -0.00004  -0.00000   0.00000  -0.00000  -0.00000  -0.00004
 689  O 4   h 6     -0.00002  -0.00000   0.00000   0.00000  -0.00000  -0.00003
 690  O 4   h 7      0.00001  -0.00000  -0.00000   0.00000  -0.00000   0.00002
 691  O 4   h 8     -0.00002   0.00000   0.00000   0.00000  -0.00000   0.00000
 692  O 4   h 9     -0.00002  -0.00001  -0.00000   0.00000  -0.00000  -0.00005
 693  O 4   h10      0.00000   0.00000   0.00000  -0.00000  -0.00000  -0.00003
 694  O 4   h11      0.00005   0.00000   0.00000  -0.00000  -0.00000   0.00012
 695  H 7   s       -0.00015   0.00000   0.00000   0.00000   0.00001  -0.02191
 696  H 7   s       -0.00173  -0.00009  -0.00001  -0.00002  -0.00008  -0.05016
 697  H 7   s        0.00800   0.00056   0.00005   0.00022   0.00045  -0.05837
 698  H 7   s        0.00183   0.00057   0.00004   0.00034   0.00145  -0.01466
 699  H 7   s        0.00013  -0.00003  -0.00001   0.00002   0.00001  -0.00235
 700  H 7   px      -0.00007  -0.00000  -0.00000   0.00000   0.00000  -0.00051
 701  H 7   py       0.00016  -0.00000   0.00000  -0.00000  -0.00000   0.00160
 702  H 7   pz      -0.00001   0.00000  -0.00000  -0.00000   0.00000  -0.00015
 703  H 7   px      -0.00000  -0.00000  -0.00000  -0.00001  -0.00001  -0.00173
 704  H 7   py       0.00012   0.00003  -0.00000   0.00001   0.00004   0.00526
 705  H 7   pz      -0.00010  -0.00000   0.00000   0.00000  -0.00001  -0.00057
 706  H 7   px       0.00230   0.00017   0.00002   0.00003  -0.00007  -0.00121
 707  H 7   py      -0.00638  -0.00033  -0.00002  -0.00009  -0.00024   0.00604
 708  H 7   pz       0.00142  -0.00005  -0.00000   0.00003  -0.00000   0.00023
 709  H 7   px       0.00063   0.00012   0.00002   0.00001   0.00016   0.00073
 710  H 7   py      -0.00199  -0.00029  -0.00003  -0.00017  -0.00059   0.00068
 711  H 7   pz       0.00051   0.00006   0.00001   0.00005   0.00009   0.00063
 712  H 7   d 1      0.00014   0.00000   0.00000   0.00000  -0.00000   0.00038
 713  H 7   d 2      0.00007   0.00000  -0.00000   0.00000   0.00000   0.00012
 714  H 7   d 3      0.00011   0.00000   0.00000   0.00000   0.00000   0.00036
 715  H 7   d 4     -0.00003   0.00000  -0.00000  -0.00000   0.00000  -0.00003
 716  H 7   d 5      0.00015   0.00001   0.00000   0.00000   0.00001   0.00052
 717  H 7   d 1     -0.00136  -0.00005  -0.00001  -0.00000   0.00004   0.00035
 718  H 7   d 2     -0.00067   0.00001   0.00000  -0.00001   0.00001   0.00005
 719  H 7   d 3     -0.00105  -0.00004  -0.00000  -0.00000  -0.00000   0.00030
 720  H 7   d 4      0.00030   0.00000   0.00000   0.00000  -0.00001  -0.00016
 721  H 7   d 5     -0.00147  -0.00004  -0.00000  -0.00001  -0.00005   0.00050
 722  H 7   d 1     -0.00145  -0.00009  -0.00002  -0.00002  -0.00002  -0.00014
 723  H 7   d 2     -0.00096  -0.00004  -0.00000  -0.00002  -0.00003  -0.00029
 724  H 7   d 3     -0.00128  -0.00002  -0.00001  -0.00002  -0.00008  -0.00000
 725  H 7   d 4      0.00022  -0.00005   0.00000   0.00001  -0.00002   0.00010
 726  H 7   d 5     -0.00179  -0.00008  -0.00001  -0.00004  -0.00014   0.00033
 727  H 7   f 1      0.00010   0.00000  -0.00000  -0.00000   0.00000  -0.00006
 728  H 7   f 2     -0.00008  -0.00001  -0.00000   0.00000  -0.00000   0.00002
 729  H 7   f 3      0.00013   0.00001   0.00000  -0.00000  -0.00000  -0.00007
 730  H 7   f 4     -0.00007   0.00000  -0.00000  -0.00000  -0.00000   0.00001
 731  H 7   f 5     -0.00005   0.00000  -0.00000  -0.00000   0.00000   0.00002
 732  H 7   f 6     -0.00006   0.00000   0.00000   0.00000   0.00000   0.00002
 733  H 7   f 7     -0.00020  -0.00001  -0.00000   0.00000   0.00000   0.00007
[...]
 784  H 8   f 3      0.00003   0.00033  -0.00039  -0.00013   0.00030  -0.00048
 785  H 8   f 4     -0.00001   0.00004   0.00006   0.00017  -0.00026   0.00020
 786  H 8   f 5      0.00002  -0.00012  -0.00019  -0.00025   0.00028  -0.00037
 787  H 8   f 6     -0.00002   0.00006   0.00020   0.00035  -0.00052   0.00056
 788  H 8   f 7     -0.00001  -0.00014   0.00011   0.00012  -0.00005   0.00016
 789  H 8   f 1      0.00013   0.00112  -0.00064   0.00159  -0.00032   0.00181
 790  H 8   f 2     -0.00017  -0.00075  -0.00065  -0.00234   0.00096  -0.00240
 791  H 8   f 3      0.00063  -0.00519   0.00226  -0.00684   0.00057  -0.00802
 792  H 8   f 4      0.00092   0.00064   0.00058   0.00214  -0.00231   0.00097
 793  H 8   f 5      0.00019   0.00143   0.00005   0.00028  -0.00173  -0.00023
 794  H 8   f 6      0.00021   0.00398  -0.00142   0.00605  -0.00211   0.00688
 795  H 8   f 7      0.00028   0.00166   0.00013   0.00228  -0.00190   0.00236
 796  H 8   g 1      0.00001   0.00009   0.00002   0.00013  -0.00015   0.00016
 797  H 8   g 2      0.00001   0.00023  -0.00007   0.00028  -0.00018   0.00034
 798  H 8   g 3      0.00000   0.00005  -0.00007  -0.00013   0.00005  -0.00020
 799  H 8   g 4      0.00009  -0.00011   0.00009  -0.00009  -0.00011  -0.00025
 800  H 8   g 5      0.00004   0.00012   0.00002   0.00031  -0.00023   0.00030
 801  H 8   g 6      0.00004   0.00010  -0.00004   0.00004  -0.00004  -0.00006
 802  H 8   g 7     -0.00001   0.00035  -0.00014   0.00048  -0.00019   0.00059
 803  H 8   g 8      0.00003   0.00011   0.00004   0.00027  -0.00019   0.00029
 804  H 8   g 9     -0.00000  -0.00004   0.00002  -0.00003   0.00002  -0.00005
 805  O 5   s        0.00018   0.00063   0.00075  -0.00212  -0.00010   0.00140
 806  O 5   s       -0.00128  -0.01640  -0.00905   0.06799  -0.00945  -0.04281
 807  O 5   s        0.00020   0.00034   0.00169   0.00046  -0.00184  -0.00103
 808  O 5   s       -0.00165  -0.02241  -0.03610   0.09034   0.01232  -0.04114
 809  O 5   s       -0.00254  -0.04091   0.10069   0.02335  -0.09885  -0.04725
 810  O 5   s       -0.07544  -0.05488   0.30836  -0.04004  -0.53764  -0.25218
 811  O 5   px      -0.09007  -0.00429   0.00236   0.00770  -0.00084   0.00619
 812  O 5   py       0.03835  -0.00550  -0.00400  -0.00236   0.00792   0.01356
 813  O 5   pz       0.00667  -0.00342  -0.00363   0.02529   0.00098  -0.02474
 814  O 5   px      -0.15088  -0.00759   0.00320   0.01388   0.00016   0.01080
 815  O 5   py       0.06393  -0.01102  -0.01025  -0.00097   0.01498   0.02462
 816  O 5   pz       0.01142  -0.00413  -0.00667   0.03837   0.00355  -0.03828
 817  O 5   px      -0.21173  -0.00742   0.01000   0.01193  -0.00616   0.01199
 818  O 5   py       0.09299  -0.00337   0.00421  -0.01949   0.01457   0.02040
 819  O 5   pz       0.01406  -0.01752  -0.00247   0.06759  -0.00532  -0.05996
 820  O 5   px      -0.19297   0.02484   0.06214  -0.00051  -0.05903  -0.04746
 821  O 5   py       0.07659   0.03809   0.09650  -0.02851  -0.10425  -0.15245
 822  O 5   pz       0.00677  -0.05411   0.02227   0.04096  -0.04043  -0.00528
 823  O 5   px      -0.13256   0.01114   0.00960  -0.12080  -0.03536   0.10961
 824  O 5   py       0.04952   0.03882   0.07788  -0.19484  -0.00342   0.19346
 825  O 5   pz      -0.00847  -0.04147   0.00716   0.03634  -0.06793  -0.07308
 826  O 5   d 1     -0.00008   0.00006   0.00007   0.00004  -0.00011  -0.00015
 827  O 5   d 2      0.00014  -0.00009  -0.00006   0.00008   0.00003  -0.00012
 828  O 5   d 3      0.00006  -0.00000  -0.00008   0.00008   0.00017   0.00006
 829  O 5   d 4     -0.00032  -0.00003   0.00004   0.00005   0.00002   0.00001
 830  O 5   d 5     -0.00011  -0.00004  -0.00008   0.00011   0.00012   0.00014
 831  O 5   d 1     -0.00011  -0.00032  -0.00069  -0.00051   0.00062   0.00138
 832  O 5   d 2      0.00095  -0.00017  -0.00018   0.00070   0.00004   0.00024
 833  O 5   d 3      0.00035   0.00015   0.00052  -0.00019  -0.00062  -0.00085
 834  O 5   d 4     -0.00236  -0.00023  -0.00020   0.00067  -0.00022  -0.00006
 835  O 5   d 5     -0.00066   0.00012   0.00072   0.00007  -0.00071  -0.00171
 836  O 5   d 1     -0.00184   0.00253   0.00890  -0.00345  -0.00873  -0.00701
 837  O 5   d 2      0.00270   0.00362   0.00024  -0.00385   0.00057  -0.00609
 838  O 5   d 3     -0.00008  -0.00624  -0.00663   0.01280   0.00430   0.00188
 839  O 5   d 4     -0.00355   0.00175   0.00207  -0.00180   0.00021  -0.00122
 840  O 5   d 5     -0.00187  -0.00155  -0.01023   0.00459   0.00901   0.00922
 841  O 5   d 1     -0.00666   0.01326   0.03101  -0.02247  -0.04413  -0.00254
 842  O 5   d 2      0.00391   0.00235  -0.00651  -0.01899   0.01971   0.01255
 843  O 5   d 3      0.00320  -0.02627  -0.02541   0.04938   0.01398  -0.00454
 844  O 5   d 4     -0.00333   0.00151  -0.00144  -0.01121   0.00199   0.00804
 845  O 5   d 5     -0.00432  -0.00198  -0.03544   0.01170   0.03632   0.02048
 846  O 5   f 1     -0.00005   0.00002   0.00008   0.00017  -0.00021  -0.00026
 847  O 5   f 2      0.00005   0.00000  -0.00005   0.00002   0.00007   0.00005
 848  O 5   f 3      0.00000  -0.00003   0.00011   0.00004  -0.00005  -0.00017
 849  O 5   f 4      0.00001   0.00003   0.00003  -0.00016   0.00003   0.00010
 850  O 5   f 5     -0.00001  -0.00005   0.00001   0.00015  -0.00008  -0.00008
 851  O 5   f 6      0.00005   0.00003   0.00014   0.00008  -0.00010  -0.00011
 852  O 5   f 7      0.00002   0.00008   0.00019  -0.00003  -0.00015  -0.00036
 853  O 5   f 1     -0.00140  -0.00020  -0.00051  -0.00049   0.00105   0.00134
 854  O 5   f 2      0.00046  -0.00011   0.00038   0.00018  -0.00057  -0.00074
 855  O 5   f 3      0.00024   0.00047  -0.00098  -0.00076   0.00079   0.00140
 856  O 5   f 4      0.00001  -0.00038  -0.00038   0.00127  -0.00001  -0.00047
 857  O 5   f 5     -0.00069   0.00034  -0.00016  -0.00075   0.00054   0.00062
 858  O 5   f 6      0.00024  -0.00001  -0.00088  -0.00072   0.00076   0.00100
 859  O 5   f 7      0.00054  -0.00051  -0.00146   0.00053   0.00109   0.00188
 860  O 5   f 1     -0.00110   0.00148  -0.00307  -0.00169   0.00190   0.00872
 861  O 5   f 2     -0.00061  -0.00165  -0.00037  -0.00206  -0.00066   0.00506
 862  O 5   f 3      0.00094  -0.00013  -0.00812  -0.01180   0.01436   0.01748
 863  O 5   f 4     -0.00025  -0.00196  -0.00179   0.01554  -0.00263  -0.01360
 864  O 5   f 5      0.00180  -0.00112  -0.00231  -0.00175   0.00472   0.00452
 865  O 5   f 6     -0.00025   0.00224  -0.00146   0.00157   0.00034  -0.00238
 866  O 5   f 7      0.00113  -0.00305  -0.00808  -0.00198   0.01156   0.00843
 867  O 5   g 1     -0.00002  -0.00002  -0.00000   0.00011  -0.00007  -0.00003
 868  O 5   g 2     -0.00005  -0.00003  -0.00001   0.00006  -0.00000  -0.00005
 869  O 5   g 3      0.00005   0.00000   0.00002   0.00016  -0.00006  -0.00015
 870  O 5   g 4     -0.00001   0.00004   0.00000  -0.00006  -0.00003   0.00003
 871  O 5   g 5      0.00002   0.00002   0.00001  -0.00023   0.00008   0.00026
 872  O 5   g 6     -0.00003   0.00001  -0.00001  -0.00003  -0.00001   0.00005
 873  O 5   g 7      0.00006   0.00003   0.00002  -0.00014   0.00007   0.00015
 874  O 5   g 8      0.00001  -0.00003  -0.00003   0.00003   0.00001   0.00002
 875  O 5   g 9      0.00002   0.00004  -0.00002  -0.00005  -0.00003   0.00011
 876  O 5   g 1      0.00009  -0.00016  -0.00116  -0.00079   0.00168   0.00171
 877  O 5   g 2     -0.00020   0.00016   0.00003  -0.00025   0.00020   0.00068
 878  O 5   g 3      0.00018  -0.00054  -0.00095  -0.00005   0.00076   0.00089
 879  O 5   g 4      0.00011   0.00040  -0.00035  -0.00286   0.00139   0.00313
 880  O 5   g 5     -0.00010  -0.00003   0.00043   0.00224  -0.00128  -0.00310
 881  O 5   g 6      0.00003   0.00013   0.00005  -0.00078   0.00050   0.00075
 882  O 5   g 7      0.00012   0.00027   0.00038  -0.00045  -0.00069  -0.00082
 883  O 5   g 8      0.00011  -0.00002  -0.00037  -0.00024   0.00042   0.00054
 884  O 5   g 9      0.00042  -0.00037   0.00018   0.00047   0.00014  -0.00114
 885  O 5   h 1      0.00009  -0.00004  -0.00005  -0.00006   0.00008  -0.00001
 886  O 5   h 2     -0.00001   0.00001  -0.00002  -0.00005   0.00006   0.00005
 887  O 5   h 3     -0.00001  -0.00001   0.00006   0.00013  -0.00004  -0.00016
 888  O 5   h 4      0.00004  -0.00004  -0.00010   0.00013   0.00000  -0.00012
 889  O 5   h 5      0.00000   0.00007   0.00008  -0.00044   0.00006   0.00036
 890  O 5   h 6      0.00001  -0.00000   0.00005   0.00004  -0.00007  -0.00010
 891  O 5   h 7     -0.00002   0.00003   0.00005  -0.00011   0.00000   0.00010
 892  O 5   h 8      0.00004   0.00003   0.00003  -0.00029   0.00002   0.00020
 893  O 5   h 9     -0.00000   0.00001   0.00003   0.00010  -0.00010  -0.00016
 894  O 5   h10      0.00003  -0.00001   0.00002   0.00004   0.00001  -0.00007
 895  O 5   h11      0.00004  -0.00000   0.00010   0.00019  -0.00017  -0.00032
 896  H 9   s        0.00029   0.00133   0.00082  -0.00516  -0.00112   0.00306
 897  H 9   s        0.00117   0.00608   0.01155  -0.01898  -0.00893   0.00042
 898  H 9   s        0.00911  -0.03181  -0.12760  -0.02227   0.14473   0.16185
 899  H 9   s        0.02511  -0.03949  -0.23601   0.43813   0.18434  -0.11666
 900  H 9   s        0.02813  -0.01965  -0.11518   0.13336   0.19481  -0.25117
 901  H 9   px      -0.00058   0.00012   0.00016  -0.00024  -0.00009   0.00008
 902  H 9   py       0.00024   0.00021   0.00001  -0.00135   0.00020   0.00084
 903  H 9   pz       0.00002   0.00005  -0.00006  -0.00013   0.00003  -0.00012
 904  H 9   px      -0.00321   0.00027  -0.00119   0.00034   0.00025   0.00026
 905  H 9   py       0.00119   0.00066  -0.00090   0.00427  -0.00090  -0.00322
 906  H 9   pz       0.00035  -0.00039  -0.00028   0.00093   0.00021   0.00053
 907  H 9   px      -0.00868   0.00518   0.02519  -0.01226  -0.02123  -0.02094
 908  H 9   py       0.00198   0.01735   0.05004  -0.04523  -0.04453  -0.02147
 909  H 9   pz      -0.00055   0.00610   0.01213   0.00265  -0.01584  -0.02482
 910  H 9   px      -0.01443   0.00552   0.05133  -0.00706  -0.05648  -0.09705
 911  H 9   py      -0.00171   0.05258   0.12797  -0.04762  -0.17106  -0.16743
 912  H 9   pz      -0.00058   0.02817   0.04396  -0.02887  -0.04660  -0.01515
 913  H 9   d 1      0.00028   0.00013   0.00034   0.00028  -0.00060  -0.00070
 914  H 9   d 2      0.00002  -0.00009   0.00001  -0.00011   0.00010  -0.00002
 915  H 9   d 3      0.00001  -0.00007  -0.00039  -0.00051   0.00049   0.00073
 916  H 9   d 4     -0.00005   0.00002   0.00004   0.00008   0.00000  -0.00009
 917  H 9   d 5      0.00028  -0.00010  -0.00039  -0.00018   0.00040   0.00028
 918  H 9   d 1      0.00118  -0.00160  -0.00503  -0.00117   0.00639   0.00768
 919  H 9   d 2     -0.00039   0.00008  -0.00125  -0.00036   0.00104   0.00291
 920  H 9   d 3     -0.00018   0.00115   0.00423   0.00203  -0.00502  -0.00628
 921  H 9   d 4      0.00052  -0.00022  -0.00069  -0.00061   0.00063   0.00168
 922  H 9   d 5      0.00090   0.00173   0.00476   0.00005  -0.00509  -0.00461
 923  H 9   d 1     -0.00008   0.00276  -0.01280   0.02441  -0.00327  -0.00088
 924  H 9   d 2      0.00156  -0.01195  -0.01558   0.00040   0.01893   0.01907
 925  H 9   d 3      0.00083   0.00146   0.00597  -0.03033   0.00474   0.01547
 926  H 9   d 4     -0.00055  -0.00329  -0.00640  -0.00014   0.00790   0.01061
 927  H 9   d 5      0.00240   0.00662   0.00960  -0.02762  -0.00373   0.01098
 928  H 9   f 1     -0.00018  -0.00006  -0.00015   0.00007   0.00012   0.00014
 929  H 9   f 2     -0.00002   0.00001   0.00009   0.00022  -0.00012  -0.00040
 930  H 9   f 3     -0.00001  -0.00008  -0.00030  -0.00019   0.00038   0.00061
 931  H 9   f 4      0.00000   0.00004  -0.00010  -0.00016   0.00018   0.00029
 932  H 9   f 5      0.00004  -0.00002  -0.00010  -0.00003   0.00014   0.00021
 933  H 9   f 6     -0.00004   0.00003  -0.00006  -0.00018   0.00016   0.00041
 934  H 9   f 7      0.00010  -0.00014  -0.00035   0.00039   0.00022   0.00012
 935  H 9   f 1     -0.00034  -0.00092  -0.00049   0.00188   0.00063  -0.00199
 936  H 9   f 2     -0.00001   0.00081   0.00171  -0.00148  -0.00130  -0.00106
 937  H 9   f 3     -0.00008  -0.00056  -0.00166   0.00312   0.00070  -0.00051
 938  H 9   f 4     -0.00001  -0.00124  -0.00170   0.00122   0.00121   0.00145
 939  H 9   f 5      0.00002  -0.00011  -0.00100   0.00066   0.00056   0.00088
 940  H 9   f 6     -0.00001  -0.00136  -0.00167   0.00162   0.00105   0.00001
 941  H 9   f 7     -0.00017  -0.00044  -0.00344   0.00016   0.00314   0.00489
 942  H 9   g 1      0.00003   0.00006   0.00025  -0.00022  -0.00011  -0.00013
 943  H 9   g 2      0.00001   0.00008   0.00005  -0.00008  -0.00004   0.00004
 944  H 9   g 3     -0.00000   0.00001   0.00010  -0.00005  -0.00005  -0.00016
 945  H 9   g 4     -0.00000   0.00011   0.00020  -0.00004  -0.00019  -0.00026
 946  H 9   g 5     -0.00001  -0.00003  -0.00008   0.00011   0.00003   0.00007
 947  H 9   g 6     -0.00000   0.00003   0.00009  -0.00001  -0.00009  -0.00015
 948  H 9   g 7     -0.00001  -0.00004  -0.00008   0.00014   0.00002   0.00001
 949  H 9   g 8     -0.00000   0.00010   0.00021  -0.00010  -0.00016  -0.00018
 950  H 9   g 9     -0.00007  -0.00006   0.00006   0.00009  -0.00002  -0.00026
 951  H 10  s        0.00066   0.00134   0.00086  -0.00471   0.00054   0.00365
 952  H 10  s        0.00099  -0.00223   0.00086  -0.00394   0.00009   0.00529
 953  H 10  s        0.01165   0.07423  -0.00695  -0.16546   0.06504   0.09452
 954  H 10  s        0.03695   0.06490  -0.10090   0.36382   0.11938  -0.39554
 955  H 10  s       -0.00284   0.11444   0.16117  -1.06086   0.07519   1.17201
 956  H 10  px      -0.00073  -0.00010  -0.00011   0.00053  -0.00018  -0.00037
 957  H 10  py       0.00029  -0.00012  -0.00016   0.00148  -0.00010  -0.00148
 958  H 10  pz       0.00006   0.00033   0.00037  -0.00298   0.00053   0.00313
 959  H 10  px      -0.00377  -0.00015   0.00070  -0.00004   0.00058   0.00022
 960  H 10  py       0.00184  -0.00083  -0.00003  -0.00145   0.00018   0.00210
 961  H 10  pz       0.00006  -0.00060  -0.00157   0.00822  -0.00113  -0.00883
 962  H 10  px      -0.01205   0.00355  -0.00621  -0.00711   0.00306   0.00487
 963  H 10  py       0.00721   0.01438  -0.00479  -0.01256   0.01339  -0.00040
 964  H 10  pz      -0.00227  -0.01428   0.01501  -0.03079  -0.00680   0.05661
 965  H 10  px      -0.02213   0.00632   0.00310   0.04122   0.01055  -0.04242
 966  H 10  py       0.01821   0.02095  -0.01249   0.04662   0.00820  -0.08935
 967  H 10  pz      -0.00869  -0.02476   0.02629  -0.08566  -0.03403   0.10401
 968  H 10  d 1     -0.00023  -0.00008   0.00012   0.00021  -0.00015  -0.00039
 969  H 10  d 2     -0.00015   0.00017  -0.00005  -0.00074   0.00024   0.00075
 970  H 10  d 3     -0.00004  -0.00008  -0.00001  -0.00030   0.00014   0.00047
 971  H 10  d 4      0.00038   0.00006  -0.00015  -0.00058   0.00009   0.00040
 972  H 10  d 5     -0.00022   0.00006   0.00001   0.00011   0.00016   0.00022
 973  H 10  d 1     -0.00065   0.00069  -0.00077  -0.00249   0.00112   0.00326
 974  H 10  d 2     -0.00108  -0.00263   0.00050   0.00733  -0.00291  -0.00548
 975  H 10  d 3      0.00008   0.00175  -0.00000   0.00092  -0.00087  -0.00413
 976  H 10  d 4      0.00149  -0.00069   0.00113   0.00400  -0.00095  -0.00285
 977  H 10  d 5     -0.00084  -0.00082  -0.00012   0.00137  -0.00152  -0.00249
 978  H 10  d 1     -0.00290   0.00181  -0.00018   0.00108   0.00053  -0.00621
 979  H 10  d 2     -0.00387  -0.00577   0.00536  -0.01576  -0.00282   0.02401
 980  H 10  d 3      0.00043   0.00051  -0.00705   0.02897   0.00067  -0.03022
 981  H 10  d 4      0.00458  -0.00094   0.00301  -0.01127  -0.00170   0.00943
 982  H 10  d 5     -0.00324  -0.00368   0.00006   0.00579   0.00063   0.00409
 983  H 10  f 1     -0.00008  -0.00005  -0.00006   0.00009  -0.00006  -0.00012
 984  H 10  f 2      0.00012  -0.00008   0.00004   0.00055  -0.00009  -0.00050
 985  H 10  f 3      0.00008   0.00029   0.00012  -0.00065   0.00006   0.00018
 986  H 10  f 4      0.00000  -0.00002   0.00003  -0.00009   0.00007   0.00017
 987  H 10  f 5     -0.00014   0.00009   0.00001  -0.00026  -0.00002   0.00009
 988  H 10  f 6      0.00016   0.00013   0.00007  -0.00044   0.00018   0.00045
 989  H 10  f 7      0.00003  -0.00006  -0.00003   0.00019   0.00001  -0.00031
 990  H 10  f 1     -0.00045  -0.00024   0.00001   0.00062   0.00003  -0.00004
 991  H 10  f 2      0.00068  -0.00045   0.00056  -0.00059  -0.00040   0.00095
 992  H 10  f 3      0.00066   0.00080  -0.00112   0.00294   0.00064  -0.00331
 993  H 10  f 4      0.00021  -0.00002   0.00020  -0.00437   0.00109   0.00491
 994  H 10  f 5     -0.00072  -0.00008  -0.00097   0.00158   0.00038  -0.00119
 995  H 10  f 6      0.00084   0.00094  -0.00005  -0.00092   0.00034  -0.00066
 996  H 10  f 7      0.00021  -0.00024   0.00027   0.00055  -0.00046   0.00042
 997  H 10  g 1      0.00000  -0.00002   0.00001   0.00007  -0.00003  -0.00004
 998  H 10  g 2      0.00010   0.00006   0.00004  -0.00013   0.00002   0.00006
 999  H 10  g 3     -0.00009   0.00004  -0.00005  -0.00002   0.00002   0.00001
1000  H 10  g 4     -0.00004  -0.00008   0.00001  -0.00025   0.00004   0.00035
1001  H 10  g 5     -0.00003  -0.00005  -0.00004   0.00022  -0.00004  -0.00016
1002  H 10  g 6      0.00007  -0.00001   0.00004  -0.00014   0.00002   0.00014
1003  H 10  g 7     -0.00011  -0.00011  -0.00005   0.00016  -0.00006  -0.00004
1004  H 10  g 8     -0.00004   0.00005  -0.00002  -0.00014   0.00004   0.00009
1005  H 10  g 9      0.00004   0.00001   0.00001  -0.00002  -0.00000   0.00002

          Ground-State Mulliken Net Atomic Charges

     Atom                 Charge (a.u.)
  ----------------------------------------
      1 O                    -0.647437
      2 H                     0.326801
      3 H                     0.306751
      4 O                    -0.549727
      5 H                     0.269276
      6 H                     0.279532
      7 O                    -0.696275
      8 H                     0.355350
      9 H                     0.321399
     10 O                    -0.653484
     11 H                     0.329074
     12 H                     0.363817
     13 O                    -0.742630
     14 H                     0.423362
     15 H                     0.314191
  ----------------------------------------
  Sum of atomic charges =     0.000000

 -----------------------------------------------------------------
                    Cartesian Multipole Moments
 -----------------------------------------------------------------
    Charge (ESU x 10^10)
                -0.0000
    Dipole Moment (Debye)
         X      -0.4696      Y       5.4570      Z      -1.9300
       Tot       5.8072
    Quadrupole Moments (Debye-Ang)
        XX     -37.3097     XY       6.1569     YY     -35.5474
        XZ       1.4943     YZ     -10.3771     ZZ     -26.9751
    Octopole Moments (Debye-Ang^2)
       XXX     -39.7024    XXY      18.3904    XYY     -10.8851
       YYY      30.0243    XXZ     -20.6922    XYZ      12.1969
       YYZ       1.3633    XZZ       0.4182    YZZ       0.7454
       ZZZ      -4.8809
    Hexadecapole Moments (Debye-Ang^3)
      XXXX    -751.6968   XXXY     110.3605   XXYY    -294.3954
      XYYY     251.8572   YYYY    -726.5284   XXXZ     166.0608
      XXYZ     -44.7336   XYYZ      53.2076   YYYZ     -44.3791
      XXZZ    -148.8649   XYZZ      61.7757   YYZZ    -117.4948
      XZZZ      65.7757   YZZZ      11.5875   ZZZZ    -128.7780
 -----------------------------------------------------------------
 Total job time:  2169.61s(wall), 68200.43s(cpu) 
 Tue Jan 14 16:18:15 2025

        *************************************************************
        *                                                           *
        *  Thank you very much for using Q-Chem.  Have a nice day.  *
        *                                                           *
        *************************************************************


