                  Welcome to Q-Chem
     A Quantum Leap Into The Future Of Chemistry


 Q-Chem 6.2 (devel), Q-Chem, Inc., Pleasanton, CA (2024)

 E. Epifanovsky,  A. T. B. Gilbert,  Xintian Feng,  Joonho Lee,  Yuezhi Mao,  
 N. Mardirossian,  P. Pokhilko,  A. White,  M. Wormit,  M. P. Coons,  
 A. L. Dempwolff,  Zhengting Gan,  D. Hait,  P. R. Horn,  L. D. Jacobson,  
 I. Kaliman,  J. Kussmann,  A. W. Lange,  Ka Un Lao,  D. S. Levine,  Jie Liu,  
 S. C. McKenzie,  A. F. Morrison,  K. D. Nanda,  F. Plasser,  D. R. Rehn,  
 M. L. Vidal,  Zhi-Qiang You,  Ying Zhu,  Huseyin Aksu,  B. Alam,  
 B. Albrecht,  A. Aldossary,  E. Alguire,  J. H. Andersen,  
 J. E. Arias-Martinez,  V. Athavale,  D. Barton,  K. Begam,  A. Behn,  
 N. Bellonzi,  Y. A. Bernard,  E. J. Berquist,  H. Burton,  A. Carreras,  
 K. Carter-Fenk,  Mathew Chow,  Romit Chakraborty,  Chandrima Chakravarty,  
 Junhan Chen,  A. D. Chien,  K. D. Closser,  V. Cofer-Shabica,  L. Cunha,  
 S. Dasgupta,  Jia Deng,  Joseph Dickinson,  M. de Wergifosse,  
 M. Diedenhofen,  Hainam Do,  Wenjie Dou,  S. Ehlert,  Po-Tung Fang,  
 S. Fatehi,  Qingguo Feng,  Jonathan Fetherolf,  T. Friedhoff,  
 Thomas Froitzheim,  Sarai Folkestad,  B. Ganoe,  J. Gayvert,  Qinghui Ge,  
 G. Gidofalvi,  M. Gimferrer,  M. Goldey,  Montgomery Gray,  J. Gomes,  
 C. Gonzalez-Espinoza,  S. Gulania,  A. Gunina,  J. A. Gyamfi,  
 M. W. D. Hanson-Heine,  P. H. P. Harbach,  A. W. Hauser,  M. F. Herbst,  
 M. Hernandez Vera,  M. Hodecker,  Z. C. Holden,  S. Houck,  Xunkun Huang,  
 Kerwin Hui,  B. C. Huynh,  K. Ikeda,  M. Ivanov,  Nayanthara K. Jayadev,  
 Hyunjun Ji,  Zuxin Jin,  Hanjie Jiang,  Subrata Jana,  B. Kaduk,  
 S. Kaehler,  R. Kang,  K. Khistyaev,  Jaehoon Kim,  Yongbin Kim,  
 P. Klunzinger,  Z. Koczor-Benda,  Joong Hoon Koh,  D. Kosenkov,  
 Saikiran Kotaru,  L. Koulias,  T. Kowalczyk,  C. M. Krauter,  K. Kue,  
 A. Kunitsa,  T. Kus,  A. Landau,  K. V. Lawler,  D. Lefrancois,  S. Lehtola,  
 Rain Li,  Shaozhi Li,  Tao E. Li,  Yi-Pei Li,  Jiashu Liang,  M. Liebenthal,  
 Hung-Hsuan Lin,  You-Sheng Lin,  Fenglai Liu,  Kuan-Yu Liu,  Xiao Liu,  
 M. Loipersberger,  A. Luenser,  C. Malbon,  Aniket Mandal,  Manisha,  
 A. Manjanath,  P. Manohar,  E. Mansoor,  S. F. Manzer,  Shan-Ping Mao,  
 A. V. Marenich,  T. Markovich,  S. Mason,  F. Matz,  S. A. Maurer,  
 Samuel May,  Alexandra McIsaac,  P. F. McLaughlin,  M. F. S. J. Menger,  
 J.-M. Mewes,  S. A. Mewes,  P. Morgante,  Mohammad Mostafanejad,  
 Madhubani Mukherjee,  J. W. Mullinax,  Quyen Nguyen,  Avik Kumar Ojha,  
 K. J. Oosterbaan,  Eno Paenurk,  Xiaoliang Pan,  G. Paran,  V. Parravicini,  
 Alexander C. Paul,  Suranjan K. Paul,  F. Pavosevic,  Zheng Pei,  S. Prager,  
 E. I. Proynov,  E. Ramos,  B. Rana,  A. E. Rask,  A. Rettig,  R. M. Richard,  
 F. Rob,  E. Rossomme,  T. Scheele,  M. Scheurer,  M. Schneider,  
 P. E. Schneider,  Tim K. Schramm,  N. Sergueev,  S. M. Sharada,  
 Hengyuan Shen,  W. Skomorowski,  D. W. Small,  C. J. Stein,  
 Alistair J. Sterling,  Yingli Su,  Yu-Chuan Su,  E. J. Sundstrom,  
 J. Talbot,  Zhen Tao,  J. Thirman,  Hung-Yi Tsai,  T. Tsuchimochi,  
 N. M. Tubman,  C. Utku,  S. P. Veccham,  O. Vydrov,  Rahel Weiss,  
 J. Wenzel,  Jonathan Wong,  J. Witte,  H. Wu,  Yanze Wu,  A. Yamada,  
 Chou-Hsun Yang,  Kun Yao,  S. Yeganeh,  S. R. Yost,  Qi Yu,  A. Zech,  
 F. Zeller,  Chongxiao Zhao,  Igor Ying Zhang,  Xing Zhang,  Yu Zhang,  
 D. Zuev,  A. Aspuru-Guzik,  A. T. Bell,  N. A. Besley,  K. B. Bravaya,  
 B. R. Brooks,  D. Casanova,  Jeng-Da Chai,  Hsing-Ta Chen,  S. Coriani,  
 C. J. Cramer,  A. E. DePrince, III,  R. A. DiStasio Jr.,  A. Dreuw,  
 B. D. Dunietz,  T. R. Furlani,  W. A. Goddard III,  S. Grimme,  
 S. Hammes-Schiffer,  T. Head-Gordon,  W. J. Hehre,  Chao-Ping Hsu,  
 T.-C. Jagau,  Yousung Jung,  A. Klamt,  Jing Kong,  D. S. Lambrecht,  
 Xiangyuan Li,  WanZhen Liang,  N. J. Mayhall,  C. W. McCurdy,  J. B. Neaton,  
 T. Neudecker,  C. Ochsenfeld,  J. A. Parkhill,  R. Peverati,  
 V. A. Rassolov,  Haisheng Ren,  Yihan Shao,  L. V. Slipchenko,  
 R. P. Steele,  J. E. Subotnik,  A. J. W. Thom,  A. Tkatchenko,  
 D. G. Truhlar,  T. Van Voorhis,  Fan Wang,  T. A. Wesolowski,  K. B. Whaley,  
 H. L. Woodcock III,  P. M. Zimmerman,  S. Faraji,  P. M. W. Gill,  
 M. Head-Gordon,  J. M. Herbert,  A. I. Krylov

 Contributors to earlier versions of Q-Chem not listed above: 
 R. D. Adamson,  B. Austin,  R. Baer,  J. Baker,  G. J. O. Beran,  
 K. Brandhorst,  S. T. Brown,  E. F. C. Byrd,  Arup K. Chakraborty,  
 G. K. L. Chan,  Chun-Min Chang,  Yunqing Chen,  C.-L. Cheng,  
 Siu Hung Chien,  D. M. Chipman,  D. L. Crittenden,  H. Dachsel,  
 R. J. Doerksen,  A. D. Dutoi,  R. G. Edgar,  J. Fosso-Tande,  
 L. Fusti-Molnar,  D. Ghosh,  A. Ghysels,  A. Golubeva-Zadorozhnaya,  
 J. Gonthier,  M. S. Gordon,  S. R. Gwaltney,  G. Hawkins,  J. E. Herr,  
 A. Heyden,  S. Hirata,  E. G. Hohenstein,  G. Kedziora,  F. J. Keil,  
 C. Kelley,  Jihan Kim,  R. A. King,  R. Z. Khaliullin,  P. P. Korambath,  
 W. Kurlancheek,  A. Laurent,  A. M. Lee,  M. S. Lee,  S. V. Levchenko,  
 Ching Yeh Lin,  D. Liotard,  E. Livshits,  R. C. Lochan,  I. Lotan,  
 L. A. Martinez-Martinez,  P. E. Maslen,  N. Nair,  D. P. O'Neill,  
 D. Neuhauser,  E. Neuscamman,  C. M. Oana,  R. Olivares-Amaya,  R. Olson,  
 T. M. Perrine,  B. Peters,  P. A. Pieniazek,  A. Prociuk,  Y. M. Rhee,  
 J. Ritchie,  M. A. Rohrdanz,  E. Rosta,  N. J. Russ,  H. F. Schaefer III,  
 M. W. Schmidt,  N. E. Schultz,  S. Sharma,  N. Shenvi,  C. D. Sherrill,  
 A. C. Simmonett,  A. Sodt,  T. Stein,  D. Stuck,  K. S. Thanthiriwatte,  
 V. Vanovschi,  L. Vogt,  Tao Wang,  A. Warshel,  M. A. Watson,  
 C. F. Williams,  Q. Wu,  X. Xu,  Jun Yang,  W. Zhang,  Yan Zhao

   Please cite Q-Chem as follows:
  "Software for the frontiers of quantum chemistry:
   An overview of developments in the Q-Chem 5 package"
   J. Chem. Phys. 155, 084801 (2021)
   https://doi.org/10.1063/5.0055522 (open access)

 Q-Chem 6.2.2 for Intel X86 EM64T Linux

 Parts of Q-Chem use Armadillo 9.900.5 (Nocturnal Misbehaviour).
 http://arma.sourceforge.net/

 Q-Chem begins on Thu Dec 19 12:52:24 2024  

 Host: compute-0-9.local
0

     Scratch files written to /scratch/keith/A1D1_1//
 Processing $rem in /home/keith/software/qchem/qchem_622/config/preferences:
 Processing $rem in /home/keith/.qchemrc:

 Checking the input file for inconsistencies... 	...done.

--------------------------------------------------------------
User input:
--------------------------------------------------------------
$molecule
read
$end

$rem
method                    b3lyp 
basis                     cc-pv5z 
mem_total                 63000
mem_static                8000
thresh                    12
scf_convergence           8
xc_grid                   000075000302
max_scf_cycles            2000
symmetry                  false
sym_ignore                true
scf_guess                 read
mom_start                 1
cis_n_roots               150
cis_triplets              false
rpa                       false 
trnss                     true
trtype                    2
n_sol                     69
nto_pairs                 2
gui                       2
print_orbitals            true
state_analysis            true
$end

$solute 
3 701 702 703 704 705 706 707 708 709 710 711 712 713 714 715 716 717 718 719 720 721 722 723 724 725 726 727 728 729 730 731 732 733 734 735 736 737 738 739 740 741 742 743 744 745 746 747 748 749 750 751 752 753 754 755 756 757 758 759 760 761 762 763 764 765 766 767 768
$end
--------------------------------------------------------------
 ----------------------------------------------------------------
             Standard Nuclear Orientation (Angstroms)
    I     Atom           X                Y                Z
 ----------------------------------------------------------------
    1      O       0.0863000000    -0.6499900000     0.8785400000
    2      H       0.7174000000     0.0081100000     0.7555400000
    3      H      -0.6875000000    -0.0931900000     0.8125400000
    4      O       1.6369000000     1.7740100000     0.7255400000
    5      H       1.9941000000     2.5297100000     1.1665400000
    6      H       2.3981400000     1.3661100000     0.3125400000
    7      O      -0.8191000000    -3.0827100000    -0.0624600000
    8      H      -0.3097000000    -2.2252300000     0.0225400000
    9      H      -0.1862000000    -3.5805800000    -0.5894600000
   10      O      -1.0797000000     1.8633100000    -1.4804600000
   11      H      -0.6661000000     0.9922100000    -1.5704600000
   12      H      -0.4732000000     2.5171100000    -1.8804600000
 ----------------------------------------------------------------
 Nuclear Repulsion Energy =         124.21102100 hartrees
 There are       20 alpha and       20 beta electrons
 Requested basis set is cc-pV5Z
 There are 204 shells and 804 basis functions

 Total QAlloc Memory Limit  63000 MB
 Mega-Array Size      7821 MB
 MEM_STATIC part      8000 MB


                       Distance Matrix (Angstroms)
             O (  1)   H (  2)   H (  3)   O (  4)   H (  5)   H (  6)
   H (  2)  0.920061
   H (  3)  0.955588  1.409700
   O (  4)  2.881587  1.991176  2.982757
   H (  5)  3.719293  2.856108  3.767745  0.945069
   H (  6)  3.119234  2.205742  3.449744  0.957308  1.498843
   O (  7)  2.761043  3.547270  3.117719  5.499146  6.397171  5.503023
   H (  8)  1.836010  2.565157  2.304870  4.503041  5.406079  4.507130
   H (  9)  3.289018  3.937539  3.791938  5.807284  6.721078  5.653509
   O ( 10)  3.638834  3.416289  3.039665  3.500618  4.110833  3.944291
   H ( 11)  3.043111  2.879722  2.618633  3.344643  4.114819  3.615945
   H ( 12)  4.237410  3.828982  3.756573  3.434524  3.920706  3.791918
             O (  7)   H (  8)   H (  9)   O ( 10)   H ( 11)
   H (  8)  1.000992
   H (  9)  0.962375  1.492237
   O ( 10)  5.151869  4.423581  5.588216
   H ( 11)  4.347694  3.607851  4.701391  0.968494
   H ( 12)  5.897691  5.112527  6.239461  0.977393  1.568002

 A cutoff of  1.0D-12 yielded  14557 shell pairs
 There are    200687 function pairs (    337044 Cartesian)
 Smallest overlap matrix eigenvalue = 2.84E-05

 Scale SEOQF with 1.000000e-01/1.000000e-01/1.000000e-01

 Standard Electronic Orientation quadrupole field applied
 Nucleus-field energy     =     0.0000000096 hartrees
 Guess MOs from SCF MO coefficient file

 -----------------------------------------------------------------------
  General SCF calculation program by
  Eric Jon Sundstrom, Paul Horn, Yuezhi Mao, Dmitri Zuev, Alec White,
  David Stuck, Shaama M.S., Shane Yost, Joonho Lee, David Small,
  Daniel Levine, Susi Lehtola, Hugh Burton, Evgeny Epifanovsky,
  Bang C. Huynh
 -----------------------------------------------------------------------
 Exchange:     0.2000 Hartree-Fock + 0.0800 Slater + 0.7200 B88
 Correlation:  0.1900 VWN1RPA + 0.8100 LYP
 Using Euler-Maclaurin-Lebedev (75,302) quadrature formula
 A restricted SCF calculation will be
 performed using DIIS
 SCF converges when DIIS error is below 1.0e-08
 ---------------------------------------
  Cycle       Energy         DIIS error
 ---------------------------------------
Maximum Overlap Method Active
 MOM overlap:    20.0 / 20
    1    -305.8980967179      3.01e-09  
    2    -305.8980967179      4.88e-09  Convergence criterion met
Maximum Overlap Method Active
 MOM overlap:    20.00 / 20
 ---------------------------------------
 SCF time:   CPU 4542.97s  wall 572.00s 
 SCF   energy =  -305.89809672
 Total energy =  -305.89809672
 MAX_CIS_SUBSPACE fits in available memory
 Direct TDDFT/TDA calculation will be performed
 Exchange:     0.2000 Hartree-Fock + 0.0800 Slater + 0.7200 B88
 Correlation:  0.1900 VWN1RPA + 0.8100 LYP
 Using Euler-Maclaurin-Lebedev (75,302) quadrature formula
 Singlet excitation energies requested
 CIS energy converged when residual is below 10e- 6
   
 ***Using a Restricted Set of Single Excitations***
   
 RCIS calculation
   
 Excitations limited to defined orbital subspace
 -------------------------------------------------------------
              Orbitals in Truncated CIS space
 -------------------------------------------------------------
     3 701 702 703 704 705 706 707 708 709 710 711 712 713 714
   715 716 717 718 719 720 721 722 723 724 725 726 727 728 729
   730 731 732 733 734 735 736 737 738 739 740 741 742 743 744
   745 746 747 748 749 750 751 752 753 754 755 756 757 758 759
   760 761 762 763 764 765 766 767 768
   
    Number of Occupied Orbitals =    1  out of    20
    Number of Virtual Orbitals  =   68  out of   784
 -------------------------------------------------------------
 Number of Roots adjusted to:          68
 ---------------------------------------------------
 Iter    Rts Conv    Rts Left    Ttl Dev     Max Dev
 ---------------------------------------------------
   1        68           0      0.017899    0.000790    Roots Converged
 ---------------------------------------------------

 ---------------------------------------------------
         TDDFT/TDA Excitation Energies              
 ---------------------------------------------------

 Excited state   1: excitation energy (eV) =    1015.7196
 Total energy for state   1:                  -268.57108986 au
    Multiplicity: Singlet
    Trans. Mom.:  0.0174 X   0.0214 Y  -0.0025 Z
    Strength   :     0.0190466409
    D(    3) --> V(  681) amplitude = -0.5409
    D(    3) --> V(  682) amplitude =  0.5544
    D(    3) --> V(  685) amplitude = -0.5351
    D(    3) --> V(  687) amplitude =  0.2351

 Excited state   2: excitation energy (eV) =    1017.4445
 Total energy for state   2:                  -268.50770252 au
    Multiplicity: Singlet
    Trans. Mom.:  0.0102 X   0.0067 Y  -0.0023 Z
    Strength   :     0.0038531418
    D(    3) --> V(  681) amplitude =  0.7487
    D(    3) --> V(  685) amplitude = -0.5740

 Excited state   3: excitation energy (eV) =    1018.0521
 Total energy for state   3:                  -268.48537382 au
    Multiplicity: Singlet
    Trans. Mom.: -0.0070 X  -0.0020 Y   0.0006 Z
    Strength   :     0.0013311586
    D(    3) --> V(  681) amplitude =  0.3499
    D(    3) --> V(  682) amplitude =  0.8001
    D(    3) --> V(  685) amplitude =  0.4310

 Excited state   4: excitation energy (eV) =    1018.6537
 Total energy for state   4:                  -268.46326272 au
    Multiplicity: Singlet
    Trans. Mom.:  0.0013 X   0.0002 Y   0.0001 Z
    Strength   :     0.0000433866
    D(    3) --> V(  683) amplitude =  0.9760

 Excited state   5: excitation energy (eV) =    1018.9155
 Total energy for state   5:                  -268.45364450 au
    Multiplicity: Singlet
    Trans. Mom.:  0.0019 X   0.0011 Y  -0.0001 Z
    Strength   :     0.0001183893
    D(    3) --> V(  684) amplitude =  0.9876

 Excited state   6: excitation energy (eV) =    1020.3886
 Total energy for state   6:                  -268.39950736 au
    Multiplicity: Singlet
    Trans. Mom.: -0.0005 X   0.0085 Y  -0.0011 Z
    Strength   :     0.0018473327
    D(    3) --> V(  686) amplitude =  0.9316
    D(    3) --> V(  692) amplitude = -0.2525

 Excited state   7: excitation energy (eV) =    1020.7764
 Total energy for state   7:                  -268.38525746 au
    Multiplicity: Singlet
    Trans. Mom.:  0.0042 X   0.0037 Y   0.0002 Z
    Strength   :     0.0007963993
    D(    3) --> V(  688) amplitude =  0.2911
    D(    3) --> V(  689) amplitude = -0.5610
    D(    3) --> V(  693) amplitude =  0.7152

 Excited state   8: excitation energy (eV) =    1021.3907
 Total energy for state   8:                  -268.36268100 au
    Multiplicity: Singlet
    Trans. Mom.:  0.0062 X  -0.0055 Y   0.0004 Z
    Strength   :     0.0017206487
    D(    3) --> V(  685) amplitude =  0.3448
    D(    3) --> V(  687) amplitude =  0.8559
    D(    3) --> V(  692) amplitude =  0.2470

 Excited state   9: excitation energy (eV) =    1022.1001
 Total energy for state   9:                  -268.33660984 au
    Multiplicity: Singlet
    Trans. Mom.:  0.0036 X  -0.0171 Y   0.0025 Z
    Strength   :     0.0078449556
    D(    3) --> V(  687) amplitude = -0.3638
    D(    3) --> V(  688) amplitude = -0.5327
    D(    3) --> V(  689) amplitude = -0.3433
    D(    3) --> V(  692) amplitude =  0.6247

 Excited state  10: excitation energy (eV) =    1022.7347
 Total energy for state  10:                  -268.31329096 au
    Multiplicity: Singlet
    Trans. Mom.:  0.0016 X  -0.0145 Y   0.0018 Z
    Strength   :     0.0054016024
    D(    3) --> V(  688) amplitude =  0.7473
    D(    3) --> V(  692) amplitude =  0.5560
    D(    3) --> V(  693) amplitude = -0.2490

 Excited state  11: excitation energy (eV) =    1023.5998
 Total energy for state  11:                  -268.28149913 au
    Multiplicity: Singlet
    Trans. Mom.:  0.0012 X  -0.0010 Y   0.0008 Z
    Strength   :     0.0000781780
    D(    3) --> V(  689) amplitude =  0.5492
    D(    3) --> V(  690) amplitude =  0.3417
    D(    3) --> V(  691) amplitude =  0.5537
    D(    3) --> V(  692) amplitude =  0.3021
    D(    3) --> V(  693) amplitude =  0.2956

 Excited state  12: excitation energy (eV) =    1023.7209
 Total energy for state  12:                  -268.27704938 au
    Multiplicity: Singlet
    Trans. Mom.:  0.0018 X   0.0046 Y   0.0003 Z
    Strength   :     0.0006146661
    D(    3) --> V(  689) amplitude = -0.3294
    D(    3) --> V(  690) amplitude =  0.7964
    D(    3) --> V(  693) amplitude = -0.4124

 Excited state  13: excitation energy (eV) =    1023.8079
 Total energy for state  13:                  -268.27385112 au
    Multiplicity: Singlet
    Trans. Mom.: -0.0001 X   0.0071 Y   0.0008 Z
    Strength   :     0.0012926452
    D(    3) --> V(  689) amplitude = -0.2912
    D(    3) --> V(  690) amplitude = -0.4500
    D(    3) --> V(  691) amplitude =  0.7333
    D(    3) --> V(  693) amplitude = -0.3093

 Excited state  14: excitation energy (eV) =    1025.1288
 Total energy for state  14:                  -268.22530895 au
    Multiplicity: Singlet
    Trans. Mom.:  0.0059 X   0.0041 Y  -0.0016 Z
    Strength   :     0.0013553130
    D(    3) --> V(  695) amplitude = -0.4748
    D(    3) --> V(  696) amplitude =  0.7491
    D(    3) --> V(  697) amplitude = -0.3749

 Excited state  15: excitation energy (eV) =    1027.4183
 Total energy for state  15:                  -268.14117055 au
    Multiplicity: Singlet
    Trans. Mom.: -0.0002 X  -0.0016 Y   0.0000 Z
    Strength   :     0.0000623007
    D(    3) --> V(  694) amplitude =  0.9840

 Excited state  16: excitation energy (eV) =    1028.8549
 Total energy for state  16:                  -268.08837643 au
    Multiplicity: Singlet
    Trans. Mom.:  0.0046 X   0.0018 Y  -0.0002 Z
    Strength   :     0.0006164004
    D(    3) --> V(  695) amplitude =  0.7506
    D(    3) --> V(  696) amplitude =  0.5487
    D(    3) --> V(  697) amplitude =  0.2360

 Excited state  17: excitation energy (eV) =    1029.3053
 Total energy for state  17:                  -268.07182318 au
    Multiplicity: Singlet
    Trans. Mom.:  0.0045 X   0.0059 Y   0.0001 Z
    Strength   :     0.0013796699
    D(    3) --> V(  695) amplitude = -0.4307
    D(    3) --> V(  697) amplitude =  0.7331
    D(    3) --> V(  700) amplitude = -0.3517
    D(    3) --> V(  701) amplitude =  0.2618

 Excited state  18: excitation energy (eV) =    1031.6075
 Total energy for state  18:                  -267.98721875 au
    Multiplicity: Singlet
    Trans. Mom.: -0.0114 X  -0.0081 Y   0.0023 Z
    Strength   :     0.0051160758
    D(    3) --> V(  696) amplitude =  0.2376
    D(    3) --> V(  697) amplitude =  0.4696
    D(    3) --> V(  700) amplitude =  0.6861
    D(    3) --> V(  701) amplitude = -0.3779
    D(    3) --> V(  702) amplitude =  0.2219

 Excited state  19: excitation energy (eV) =    1031.7804
 Total energy for state  19:                  -267.98086692 au
    Multiplicity: Singlet
    Trans. Mom.: -0.0010 X  -0.0010 Y   0.0003 Z
    Strength   :     0.0000539893
    D(    3) --> V(  698) amplitude =  0.9909

 Excited state  20: excitation energy (eV) =    1033.0858
 Total energy for state  20:                  -267.93289317 au
    Multiplicity: Singlet
    Trans. Mom.: -0.0009 X  -0.0011 Y   0.0004 Z
    Strength   :     0.0000504404
    D(    3) --> V(  699) amplitude =  0.9834

 Excited state  21: excitation energy (eV) =    1034.2529
 Total energy for state  21:                  -267.89000346 au
    Multiplicity: Singlet
    Trans. Mom.:  0.0007 X   0.0040 Y   0.0008 Z
    Strength   :     0.0004400523
    D(    3) --> V(  700) amplitude =  0.5402
    D(    3) --> V(  701) amplitude =  0.7841

 Excited state  22: excitation energy (eV) =    1035.3627
 Total energy for state  22:                  -267.84921860 au
    Multiplicity: Singlet
    Trans. Mom.: -0.0085 X  -0.0043 Y  -0.0010 Z
    Strength   :     0.0023292303
    D(    3) --> V(  701) amplitude =  0.2226
    D(    3) --> V(  704) amplitude =  0.9335
    D(    3) --> V(  705) amplitude = -0.2245

 Excited state  23: excitation energy (eV) =    1035.4467
 Total energy for state  23:                  -267.84613406 au
    Multiplicity: Singlet
    Trans. Mom.: -0.0001 X   0.0001 Y   0.0007 Z
    Strength   :     0.0000129633
    D(    3) --> V(  701) amplitude =  0.2809
    D(    3) --> V(  702) amplitude =  0.9007
    D(    3) --> V(  705) amplitude =  0.2435

 Excited state  24: excitation energy (eV) =    1037.0611
 Total energy for state  24:                  -267.78680374 au
    Multiplicity: Singlet
    Trans. Mom.: -0.0061 X  -0.0026 Y   0.0005 Z
    Strength   :     0.0011402221
    D(    3) --> V(  703) amplitude =  0.8997
    D(    3) --> V(  706) amplitude =  0.3292

 Excited state  25: excitation energy (eV) =    1037.7429
 Total energy for state  25:                  -267.76174831 au
    Multiplicity: Singlet
    Trans. Mom.: -0.0076 X  -0.0028 Y   0.0022 Z
    Strength   :     0.0017882321
    D(    3) --> V(  704) amplitude =  0.2557
    D(    3) --> V(  705) amplitude =  0.9080

 Excited state  26: excitation energy (eV) =    1039.1038
 Total energy for state  26:                  -267.71173804 au
    Multiplicity: Singlet
    Trans. Mom.: -0.0102 X  -0.0068 Y   0.0009 Z
    Strength   :     0.0038472126
    D(    3) --> V(  703) amplitude = -0.3744
    D(    3) --> V(  706) amplitude =  0.9155

 Excited state  27: excitation energy (eV) =    1044.3281
 Total energy for state  27:                  -267.51974643 au
    Multiplicity: Singlet
    Trans. Mom.:  0.0002 X  -0.0001 Y   0.0000 Z
    Strength   :     0.0000009554
    D(    3) --> V(  707) amplitude =  0.9987

 Excited state  28: excitation energy (eV) =    1045.1104
 Total energy for state  28:                  -267.49099896 au
    Multiplicity: Singlet
    Trans. Mom.: -0.0001 X  -0.0003 Y   0.0002 Z
    Strength   :     0.0000035757
    D(    3) --> V(  708) amplitude =  0.9993

 Excited state  29: excitation energy (eV) =    1045.7511
 Total energy for state  29:                  -267.46745381 au
    Multiplicity: Singlet
    Trans. Mom.: -0.0006 X  -0.0009 Y   0.0003 Z
    Strength   :     0.0000323450
    D(    3) --> V(  709) amplitude =  0.9983

 Excited state  30: excitation energy (eV) =    1046.0037
 Total energy for state  30:                  -267.45817098 au
    Multiplicity: Singlet
    Trans. Mom.:  0.0002 X  -0.0007 Y  -0.0007 Z
    Strength   :     0.0000270223
    D(    3) --> V(  712) amplitude =  0.9751

 Excited state  31: excitation energy (eV) =    1046.2298
 Total energy for state  31:                  -267.44986170 au
    Multiplicity: Singlet
    Trans. Mom.: -0.0000 X   0.0006 Y  -0.0001 Z
    Strength   :     0.0000108122
    D(    3) --> V(  710) amplitude =  0.9970

 Excited state  32: excitation energy (eV) =    1046.3080
 Total energy for state  32:                  -267.44698655 au
    Multiplicity: Singlet
    Trans. Mom.: -0.0002 X  -0.0002 Y  -0.0001 Z
    Strength   :     0.0000021349
    D(    3) --> V(  711) amplitude =  0.9874

 Excited state  33: excitation energy (eV) =    1046.9755
 Total energy for state  33:                  -267.42245743 au
    Multiplicity: Singlet
    Trans. Mom.:  0.0004 X   0.0003 Y  -0.0003 Z
    Strength   :     0.0000090842
    D(    3) --> V(  713) amplitude =  0.9985

 Excited state  34: excitation energy (eV) =    1048.0936
 Total energy for state  34:                  -267.38136660 au
    Multiplicity: Singlet
    Trans. Mom.: -0.0000 X   0.0001 Y  -0.0003 Z
    Strength   :     0.0000028636
    D(    3) --> V(  714) amplitude =  0.9918

 Excited state  35: excitation energy (eV) =    1049.1286
 Total energy for state  35:                  -267.34333089 au
    Multiplicity: Singlet
    Trans. Mom.:  0.0002 X  -0.0002 Y  -0.0015 Z
    Strength   :     0.0000606515
    D(    3) --> V(  715) amplitude =  0.9663

 Excited state  36: excitation energy (eV) =    1049.8024
 Total energy for state  36:                  -267.31856829 au
    Multiplicity: Singlet
    Trans. Mom.:  0.0010 X   0.0016 Y  -0.0042 Z
    Strength   :     0.0005490505
    D(    3) --> V(  716) amplitude =  0.8034
    D(    3) --> V(  719) amplitude = -0.3110
    D(    3) --> V(  720) amplitude =  0.3581

 Excited state  37: excitation energy (eV) =    1050.2777
 Total energy for state  37:                  -267.30110391 au
    Multiplicity: Singlet
    Trans. Mom.: -0.0011 X  -0.0008 Y   0.0056 Z
    Strength   :     0.0008591823
    D(    3) --> V(  716) amplitude =  0.5864
    D(    3) --> V(  719) amplitude =  0.4251
    D(    3) --> V(  720) amplitude = -0.5244
    D(    3) --> V(  722) amplitude =  0.2670

 Excited state  38: excitation energy (eV) =    1051.4901
 Total energy for state  38:                  -267.25654701 au
    Multiplicity: Singlet
    Trans. Mom.: -0.0024 X  -0.0033 Y  -0.0017 Z
    Strength   :     0.0004953600
    D(    3) --> V(  717) amplitude = -0.4544
    D(    3) --> V(  718) amplitude =  0.7554
    D(    3) --> V(  722) amplitude = -0.4242

 Excited state  39: excitation energy (eV) =    1051.8504
 Total energy for state  39:                  -267.24330904 au
    Multiplicity: Singlet
    Trans. Mom.: -0.0001 X  -0.0004 Y  -0.0002 Z
    Strength   :     0.0000068688
    D(    3) --> V(  717) amplitude =  0.8667
    D(    3) --> V(  718) amplitude =  0.4941

 Excited state  40: excitation energy (eV) =    1052.3368
 Total energy for state  40:                  -267.22543181 au
    Multiplicity: Singlet
    Trans. Mom.: -0.0008 X   0.0003 Y   0.0028 Z
    Strength   :     0.0002140121
    D(    3) --> V(  718) amplitude =  0.3458
    D(    3) --> V(  720) amplitude =  0.2753
    D(    3) --> V(  722) amplitude =  0.7932
    D(    3) --> V(  723) amplitude =  0.2232
    D(    3) --> V(  724) amplitude = -0.2197

 Excited state  41: excitation energy (eV) =    1053.9122
 Total energy for state  41:                  -267.16753788 au
    Multiplicity: Singlet
    Trans. Mom.: -0.0010 X  -0.0026 Y  -0.0001 Z
    Strength   :     0.0001987783
    D(    3) --> V(  719) amplitude =  0.6899
    D(    3) --> V(  720) amplitude =  0.6060
    D(    3) --> V(  723) amplitude = -0.2882

 Excited state  42: excitation energy (eV) =    1055.1582
 Total energy for state  42:                  -267.12174919 au
    Multiplicity: Singlet
    Trans. Mom.:  0.0012 X   0.0014 Y  -0.0036 Z
    Strength   :     0.0004261765
    D(    3) --> V(  719) amplitude =  0.3977
    D(    3) --> V(  721) amplitude = -0.3244
    D(    3) --> V(  723) amplitude =  0.6540
    D(    3) --> V(  724) amplitude = -0.4197
    D(    3) --> V(  726) amplitude =  0.2485

 Excited state  43: excitation energy (eV) =    1055.2555
 Total energy for state  43:                  -267.11817055 au
    Multiplicity: Singlet
    Trans. Mom.:  0.0003 X   0.0004 Y  -0.0013 Z
    Strength   :     0.0000484744
    D(    3) --> V(  721) amplitude =  0.9374
    D(    3) --> V(  723) amplitude =  0.2328

 Excited state  44: excitation energy (eV) =    1057.8834
 Total energy for state  44:                  -267.02159852 au
    Multiplicity: Singlet
    Trans. Mom.:  0.0002 X  -0.0023 Y  -0.0099 Z
    Strength   :     0.0026951432
    D(    3) --> V(  724) amplitude = -0.3305
    D(    3) --> V(  725) amplitude =  0.6832
    D(    3) --> V(  727) amplitude =  0.5857

 Excited state  45: excitation energy (eV) =    1059.7750
 Total energy for state  45:                  -266.95208222 au
    Multiplicity: Singlet
    Trans. Mom.: -0.0005 X  -0.0032 Y  -0.0013 Z
    Strength   :     0.0003202667
    D(    3) --> V(  720) amplitude =  0.2365
    D(    3) --> V(  723) amplitude = -0.3330
    D(    3) --> V(  725) amplitude = -0.4286
    D(    3) --> V(  726) amplitude =  0.6509
    D(    3) --> V(  727) amplitude =  0.4226

 Excited state  46: excitation energy (eV) =    1059.9233
 Total energy for state  46:                  -266.94663407 au
    Multiplicity: Singlet
    Trans. Mom.: -0.0007 X  -0.0026 Y  -0.0036 Z
    Strength   :     0.0005312417
    D(    3) --> V(  723) amplitude =  0.4611
    D(    3) --> V(  724) amplitude =  0.7625
    D(    3) --> V(  727) amplitude =  0.3566

 Excited state  47: excitation energy (eV) =    1062.8722
 Total energy for state  47:                  -266.83826242 au
    Multiplicity: Singlet
    Trans. Mom.:  0.0056 X   0.0057 Y   0.0027 Z
    Strength   :     0.0018495503
    D(    3) --> V(  725) amplitude =  0.4603
    D(    3) --> V(  726) amplitude =  0.6346
    D(    3) --> V(  727) amplitude = -0.5771

 Excited state  48: excitation energy (eV) =    1065.0556
 Total energy for state  48:                  -266.75802476 au
    Multiplicity: Singlet
    Trans. Mom.:  0.0059 X  -0.0032 Y   0.0029 Z
    Strength   :     0.0014113417
    D(    3) --> V(  728) amplitude =  0.9744

 Excited state  49: excitation energy (eV) =    1080.2182
 Total energy for state  49:                  -266.20080903 au
    Multiplicity: Singlet
    Trans. Mom.: -0.0024 X   0.0040 Y  -0.0004 Z
    Strength   :     0.0005790928
    D(    3) --> V(  729) amplitude =  0.8848
    D(    3) --> V(  730) amplitude =  0.3787
    D(    3) --> V(  734) amplitude =  0.2608

 Excited state  50: excitation energy (eV) =    1080.5477
 Total energy for state  50:                  -266.18870226 au
    Multiplicity: Singlet
    Trans. Mom.: -0.0017 X   0.0036 Y  -0.0003 Z
    Strength   :     0.0004128623
    D(    3) --> V(  729) amplitude = -0.4422
    D(    3) --> V(  730) amplitude =  0.8658
    D(    3) --> V(  734) amplitude =  0.2208

 Excited state  51: excitation energy (eV) =    1082.0845
 Total energy for state  51:                  -266.13222579 au
    Multiplicity: Singlet
    Trans. Mom.: -0.0105 X   0.0100 Y  -0.0008 Z
    Strength   :     0.0055529747
    D(    3) --> V(  730) amplitude = -0.3229
    D(    3) --> V(  734) amplitude =  0.9150

 Excited state  52: excitation energy (eV) =    1083.9629
 Total energy for state  52:                  -266.06319654 au
    Multiplicity: Singlet
    Trans. Mom.: -0.0005 X  -0.0015 Y  -0.0000 Z
    Strength   :     0.0000672767
    D(    3) --> V(  731) amplitude =  0.9981

 Excited state  53: excitation energy (eV) =    1084.8885
 Total energy for state  53:                  -266.02918010 au
    Multiplicity: Singlet
    Trans. Mom.: -0.0041 X  -0.0003 Y   0.0004 Z
    Strength   :     0.0004615032
    D(    3) --> V(  732) amplitude =  0.9882

 Excited state  54: excitation energy (eV) =    1085.7927
 Total energy for state  54:                  -265.99594936 au
    Multiplicity: Singlet
    Trans. Mom.:  0.0003 X   0.0000 Y  -0.0000 Z
    Strength   :     0.0000029036
    D(    3) --> V(  733) amplitude =  0.9995

 Excited state  55: excitation energy (eV) =    1089.5748
 Total energy for state  55:                  -265.85696289 au
    Multiplicity: Singlet
    Trans. Mom.:  0.0207 X   0.0032 Y  -0.0000 Z
    Strength   :     0.0116946170
    D(    3) --> V(  735) amplitude = -0.2503
    D(    3) --> V(  736) amplitude =  0.9548

 Excited state  56: excitation energy (eV) =    1091.3179
 Total energy for state  56:                  -265.79290440 au
    Multiplicity: Singlet
    Trans. Mom.:  0.0038 X  -0.0003 Y   0.0002 Z
    Strength   :     0.0003867192
    D(    3) --> V(  735) amplitude =  0.9655
    D(    3) --> V(  736) amplitude =  0.2574

 Excited state  57: excitation energy (eV) =    1109.5873
 Total energy for state  57:                  -265.12151634 au
    Multiplicity: Singlet
    Trans. Mom.: -0.0001 X   0.0126 Y  -0.0132 Z
    Strength   :     0.0090841664
    D(    3) --> V(  739) amplitude =  0.6858
    D(    3) --> V(  742) amplitude = -0.5995
    D(    3) --> V(  743) amplitude =  0.2264
    D(    3) --> V(  744) amplitude =  0.2422

 Excited state  58: excitation energy (eV) =    1111.5675
 Total energy for state  58:                  -265.04874621 au
    Multiplicity: Singlet
    Trans. Mom.: -0.0001 X   0.0144 Y   0.0072 Z
    Strength   :     0.0070311701
    D(    3) --> V(  737) amplitude =  0.2125
    D(    3) --> V(  739) amplitude =  0.3998
    D(    3) --> V(  740) amplitude =  0.2803
    D(    3) --> V(  741) amplitude = -0.2329
    D(    3) --> V(  742) amplitude =  0.4351
    D(    3) --> V(  743) amplitude =  0.5191
    D(    3) --> V(  744) amplitude = -0.4308

 Excited state  59: excitation energy (eV) =    1113.9950
 Total energy for state  59:                  -264.95953690 au
    Multiplicity: Singlet
    Trans. Mom.: -0.0004 X  -0.0014 Y  -0.0011 Z
    Strength   :     0.0000953908
    D(    3) --> V(  737) amplitude =  0.9725

 Excited state  60: excitation energy (eV) =    1115.0544
 Total energy for state  60:                  -264.92060159 au
    Multiplicity: Singlet
    Trans. Mom.: -0.0000 X  -0.0003 Y  -0.0000 Z
    Strength   :     0.0000022316
    D(    3) --> V(  738) amplitude =  0.9658
    D(    3) --> V(  739) amplitude = -0.2487

 Excited state  61: excitation energy (eV) =    1116.1027
 Total energy for state  61:                  -264.88207736 au
    Multiplicity: Singlet
    Trans. Mom.: -0.0002 X   0.0007 Y  -0.0008 Z
    Strength   :     0.0000348616
    D(    3) --> V(  739) amplitude = -0.2932
    D(    3) --> V(  740) amplitude =  0.9005
    D(    3) --> V(  742) amplitude = -0.2821

 Excited state  62: excitation energy (eV) =    1116.3274
 Total energy for state  62:                  -264.87382043 au
    Multiplicity: Singlet
    Trans. Mom.: -0.0002 X   0.0036 Y  -0.0006 Z
    Strength   :     0.0003626250
    D(    3) --> V(  739) amplitude = -0.4181
    D(    3) --> V(  740) amplitude = -0.3013
    D(    3) --> V(  742) amplitude = -0.3427
    D(    3) --> V(  743) amplitude =  0.6444
    D(    3) --> V(  744) amplitude = -0.2624
    D(    3) --> V(  747) amplitude = -0.2669

 Excited state  63: excitation energy (eV) =    1116.4800
 Total energy for state  63:                  -264.86821287 au
    Multiplicity: Singlet
    Trans. Mom.:  0.0002 X  -0.0010 Y  -0.0002 Z
    Strength   :     0.0000272145
    D(    3) --> V(  741) amplitude =  0.9313
    D(    3) --> V(  742) amplitude =  0.3288

 Excited state  64: excitation energy (eV) =    1118.0505
 Total energy for state  64:                  -264.81049838 au
    Multiplicity: Singlet
    Trans. Mom.: -0.0007 X   0.0010 Y  -0.0001 Z
    Strength   :     0.0000419102
    D(    3) --> V(  743) amplitude =  0.4680
    D(    3) --> V(  744) amplitude =  0.5362
    D(    3) --> V(  747) amplitude =  0.5550
    D(    3) --> V(  748) amplitude = -0.2961

 Excited state  65: excitation energy (eV) =    1120.8315
 Total energy for state  65:                  -264.70829731 au
    Multiplicity: Singlet
    Trans. Mom.:  0.0018 X  -0.0016 Y  -0.0039 Z
    Strength   :     0.0005885496
    D(    3) --> V(  742) amplitude =  0.3038
    D(    3) --> V(  744) amplitude =  0.6158
    D(    3) --> V(  747) amplitude = -0.5902
    D(    3) --> V(  748) amplitude =  0.3187

 Excited state  66: excitation energy (eV) =    1125.1927
 Total energy for state  66:                  -264.54802652 au
    Multiplicity: Singlet
    Trans. Mom.: -0.0011 X   0.0014 Y  -0.0001 Z
    Strength   :     0.0000831303
    D(    3) --> V(  745) amplitude =  0.9863

 Excited state  67: excitation energy (eV) =    1125.8987
 Total energy for state  67:                  -264.52208226 au
    Multiplicity: Singlet
    Trans. Mom.: -0.0001 X   0.0001 Y   0.0003 Z
    Strength   :     0.0000024099
    D(    3) --> V(  746) amplitude =  0.9700
    D(    3) --> V(  747) amplitude =  0.2185

 Excited state  68: excitation energy (eV) =    1127.4447
 Total energy for state  68:                  -264.46526819 au
    Multiplicity: Singlet
    Trans. Mom.:  0.0013 X   0.0001 Y  -0.0000 Z
    Strength   :     0.0000497396
    D(    3) --> V(  747) amplitude =  0.4588
    D(    3) --> V(  748) amplitude =  0.8854

 ---------------------------------------------------
  SETman timing summary (seconds)
  CPU time             33265.86s
  System time              0.00s
  Wall time             4180.64s
================================================================================
                             Excited State Analysis
================================================================================

  Ground State (Reference) :
  -------------------------
    NOs
      Occupation of frontier NOs:
         0.0000   0.0000   2.0000   2.0000
      Number of electrons: 40.000000
      Number of unpaired electrons: n_u = -0.00000, n_u,nl =  0.00000
    
    Mulliken Population Analysis (State DM)
    Atom      Charge (e)
    --------------------
     1 O       -0.692633
     2 H        0.352337
     3 H        0.353683
     4 O       -0.565402
     5 H        0.280751
     6 H        0.300462
     7 O       -0.609221
     8 H        0.338214
     9 H        0.242217
    10 O       -0.599520
    11 H        0.307933
    12 H        0.291179
    --------------------
    Sum:       -0.000000
    
    Multipole moment analysis of the density matrix
      Molecular charge:                      -0.000000
      Number of electrons:                   40.000000
        Center of electronic charge [Ang]: [  0.006345,  -0.001469,  -0.005446]
      Total nuclear charge:                  40.000000
        Center of nuclear charge [Ang]:    [  0.034553,   0.018780,  -0.012035]
      Dipole moment [D]:                     6.790521
        Cartesian components [D]:          [  5.419686,   3.890448,  -1.265937]
      RMS size of the density [Ang]:         2.581335
        Cartesian components [Ang]:        [  1.146465,   2.070826,   1.029850]
    

  ----------------------------------------------------------------------------
                  Analysis of Unrelaxed Density Matrices
  ----------------------------------------------------------------------------

  Singlet 1 :
  -------------------------
    NOs
      Occupation of frontier NOs:
         0.0000   1.0000   1.0000   2.0000
      Number of electrons: 40.000000
      Number of unpaired electrons: n_u =  2.00000, n_u,nl =  2.00000
      NO participation ratio (PR_NO):  2.000000
    
    NDOs
      Leading detachment eigenvalues:
        -1.0000  -0.0000
      Leading attachment eigenvalues:
         1.0000   0.0000
      Number of detached / attached electrons: p_D =  1.0000, p_A =  1.0000
      Number of involved orbitals: PR_D =  1.000000, PR_A =  1.000000
    
    Mulliken Population Analysis (State/Difference DM)
    Atom      Charge (e)              h+              e-           Del q
    --------------------------------------------------------------------
     1 O       -0.250888        0.991823       -0.550078        0.441745
     2 H        0.252929        0.004862       -0.104270       -0.099408
     3 H        0.303318        0.003309       -0.053673       -0.050365
     4 O       -0.579064        0.000004       -0.013666       -0.013662
     5 H        0.277215        0.000000       -0.003536       -0.003536
     6 H        0.294621        0.000000       -0.005841       -0.005841
     7 O       -0.752022        0.000000       -0.142801       -0.142801
     8 H        0.269711        0.000001       -0.068504       -0.068503
     9 H        0.186002       -0.000000       -0.056215       -0.056215
    10 O       -0.600623        0.000000       -0.001103       -0.001103
    11 H        0.307719        0.000000       -0.000215       -0.000215
    12 H        0.291083        0.000000       -0.000096       -0.000096
    --------------------------------------------------------------------
    Sum:        0.000000        1.000000       -1.000000        0.000000
    
    Multipole moment analysis of the density matrix
      Molecular charge:                      0.000000
      Number of electrons:                   40.000000
        Center of electronic charge [Ang]: [  0.003416,  -0.013863,  -0.012874]
      Total nuclear charge:                  40.000000
        Center of nuclear charge [Ang]:    [  0.034554,   0.018780,  -0.012035]
      Dipole moment [D]:                     8.668865
        Cartesian components [D]:          [  5.982325,   6.271763,   0.161221]
      RMS size of the density [Ang]:         2.594513
        Cartesian components [Ang]:        [  1.150636,   2.085782,   1.028129]
    
    Exciton analysis of the difference density matrix
      <r_h> [Ang]:                  [  0.086285,  -0.649832,   0.878503]
      <r_e> [Ang]:                  [ -0.030853,  -1.145608,   0.581376]
      |<r_e - r_h>| [Ang]:            0.589745
      Hole size [Ang]:                0.122783
        Cartesian components [Ang]: [  0.070897,   0.070893,   0.070877]
      Electron size [Ang]:            1.518307
        Cartesian components [Ang]: [  0.627418,   1.268505,   0.549996]

  Singlet 2 :
  -------------------------
    NOs
      Occupation of frontier NOs:
         0.0000   1.0000   1.0000   2.0000
      Number of electrons: 40.000000
      Number of unpaired electrons: n_u =  2.00000, n_u,nl =  2.00000
      NO participation ratio (PR_NO):  2.000000
    
    NDOs
      Leading detachment eigenvalues:
        -1.0000  -0.0000
      Leading attachment eigenvalues:
         1.0000   0.0000
      Number of detached / attached electrons: p_D =  1.0000, p_A =  1.0000
      Number of involved orbitals: PR_D =  1.000000, PR_A =  1.000000
    
    Mulliken Population Analysis (State/Difference DM)
    Atom      Charge (e)              h+              e-           Del q
    --------------------------------------------------------------------
     1 O        0.006813        0.991823       -0.292378        0.699445
     2 H        0.330769        0.004862       -0.026430       -0.021568
     3 H        0.317077        0.003309       -0.039914       -0.036606
     4 O       -0.658803        0.000004       -0.093405       -0.093401
     5 H        0.255449        0.000000       -0.025302       -0.025302
     6 H        0.255820        0.000000       -0.044643       -0.044643
     7 O       -0.845735        0.000000       -0.236514       -0.236514
     8 H        0.242802        0.000001       -0.095413       -0.095412
     9 H        0.099038       -0.000000       -0.143179       -0.143179
    10 O       -0.602081        0.000000       -0.002561       -0.002561
    11 H        0.307730        0.000000       -0.000203       -0.000203
    12 H        0.291122        0.000000       -0.000058       -0.000058
    --------------------------------------------------------------------
    Sum:        0.000000        1.000000       -1.000000        0.000000
    
    Multipole moment analysis of the density matrix
      Molecular charge:                      0.000000
      Number of electrons:                   40.000000
        Center of electronic charge [Ang]: [  0.005169,  -0.019205,  -0.019157]
      Total nuclear charge:                  40.000000
        Center of nuclear charge [Ang]:    [  0.034554,   0.018780,  -0.012035]
      Dipole moment [D]:                     9.327708
        Cartesian components [D]:          [  5.645536,   7.298072,   1.368284]
      RMS size of the density [Ang]:         2.607854
        Cartesian components [Ang]:        [  1.156226,   2.100204,   1.026249]
    
    Exciton analysis of the difference density matrix
      <r_h> [Ang]:                  [  0.086285,  -0.649832,   0.878503]
      <r_e> [Ang]:                  [  0.039265,  -1.359280,   0.330073]
      |<r_e - r_h>| [Ang]:            0.897944
      Hole size [Ang]:                0.122783
        Cartesian components [Ang]: [  0.070897,   0.070893,   0.070877]
      Electron size [Ang]:            2.188723
        Cartesian components [Ang]: [  0.953696,   1.869710,   0.620611]

  Singlet 3 :
  -------------------------
    NOs
      Occupation of frontier NOs:
         0.0000   1.0000   1.0000   2.0000
      Number of electrons: 40.000000
      Number of unpaired electrons: n_u =  2.00000, n_u,nl =  2.00000
      NO participation ratio (PR_NO):  2.000000
    
    NDOs
      Leading detachment eigenvalues:
        -1.0000  -0.0000
      Leading attachment eigenvalues:
         1.0000   0.0000
      Number of detached / attached electrons: p_D =  1.0000, p_A =  1.0000
      Number of involved orbitals: PR_D =  1.000000, PR_A =  1.000000
    
    Mulliken Population Analysis (State/Difference DM)
    Atom      Charge (e)              h+              e-           Del q
    --------------------------------------------------------------------
     1 O        0.185175        0.991823       -0.114016        0.877807
     2 H        0.344286        0.004862       -0.012913       -0.008051
     3 H        0.340445        0.003309       -0.016546       -0.013237
     4 O       -1.075583        0.000004       -0.510185       -0.510181
     5 H        0.181119        0.000000       -0.099632       -0.099632
     6 H        0.161562        0.000000       -0.138900       -0.138900
     7 O       -0.631403        0.000000       -0.022183       -0.022182
     8 H        0.333714        0.000001       -0.004502       -0.004501
     9 H        0.225648       -0.000000       -0.016569       -0.016569
    10 O       -0.662692        0.000000       -0.063172       -0.063172
    11 H        0.307028        0.000000       -0.000906       -0.000905
    12 H        0.290702        0.000000       -0.000477       -0.000477
    --------------------------------------------------------------------
    Sum:       -0.000000        1.000000       -1.000000       -0.000000
    
    Multipole moment analysis of the density matrix
      Molecular charge:                      -0.000000
      Number of electrons:                   40.000000
        Center of electronic charge [Ang]: [  0.035788,   0.045811,  -0.013579]
      Total nuclear charge:                  40.000000
        Center of nuclear charge [Ang]:    [  0.034553,   0.018780,  -0.012035]
      Dipole moment [D]:                     5.207171
        Cartesian components [D]:          [ -0.237171,  -5.193303,   0.296617]
      RMS size of the density [Ang]:         2.607227
        Cartesian components [Ang]:        [  1.174645,   2.087482,   1.029690]
    
    Exciton analysis of the difference density matrix
      <r_h> [Ang]:                  [  0.086285,  -0.649832,   0.878503]
      <r_e> [Ang]:                  [  1.264011,   1.241354,   0.553188]
      |<r_e - r_h>| [Ang]:            2.251544
      Hole size [Ang]:                0.122783
        Cartesian components [Ang]: [  0.070897,   0.070893,   0.070877]
      Electron size [Ang]:            1.812481
        Cartesian components [Ang]: [  1.039580,   1.319323,   0.680991]

  Singlet 4 :
  -------------------------
    NOs
      Occupation of frontier NOs:
         0.0000   1.0000   1.0000   2.0000
      Number of electrons: 40.000000
      Number of unpaired electrons: n_u =  2.00000, n_u,nl =  2.00000
      NO participation ratio (PR_NO):  2.000000
    
    NDOs
      Leading detachment eigenvalues:
        -1.0000  -0.0000
      Leading attachment eigenvalues:
         1.0000   0.0000
      Number of detached / attached electrons: p_D =  1.0000, p_A =  1.0000
      Number of involved orbitals: PR_D =  1.000000, PR_A =  1.000000
    
    Mulliken Population Analysis (State/Difference DM)
    Atom      Charge (e)              h+              e-           Del q
    --------------------------------------------------------------------
     1 O        0.292932        0.991823       -0.006259        0.985564
     2 H        0.356413        0.004862       -0.000786        0.004076
     3 H        0.356608        0.003309       -0.000383        0.002925
     4 O       -0.602361        0.000004       -0.036963       -0.036959
     5 H        0.273959        0.000000       -0.006792       -0.006792
     6 H        0.291526        0.000000       -0.008936       -0.008936
     7 O       -0.610030        0.000000       -0.000809       -0.000809
     8 H        0.338034        0.000001       -0.000181       -0.000180
     9 H        0.241731       -0.000000       -0.000486       -0.000486
    10 O       -1.524645        0.000000       -0.925125       -0.925125
    11 H        0.301145        0.000000       -0.006789       -0.006788
    12 H        0.284688        0.000000       -0.006491       -0.006491
    --------------------------------------------------------------------
    Sum:       -0.000000        1.000000       -1.000000       -0.000000
    
    Multipole moment analysis of the density matrix
      Molecular charge:                      -0.000000
      Number of electrons:                   40.000000
        Center of electronic charge [Ang]: [ -0.017837,   0.060354,  -0.061145]
      Total nuclear charge:                  40.000000
        Center of nuclear charge [Ang]:    [  0.034553,   0.018780,  -0.012035]
      Dipole moment [D]:                     15.941962
        Cartesian components [D]:          [ 10.065772,  -7.987432,   9.435430]
      RMS size of the density [Ang]:         2.607725
        Cartesian components [Ang]:        [  1.160413,   2.088216,   1.045480]
    
    Exciton analysis of the difference density matrix
      <r_h> [Ang]:                  [  0.086285,  -0.649832,   0.878503]
      <r_e> [Ang]:                  [ -0.881003,   1.823076,  -1.349461]
      |<r_e - r_h>| [Ang]:            3.466229
      Hole size [Ang]:                0.122783
        Cartesian components [Ang]: [  0.070897,   0.070893,   0.070877]
      Electron size [Ang]:            1.038472
        Cartesian components [Ang]: [  0.731136,   0.377205,   0.633703]

  Singlet 5 :
  -------------------------
    NOs
      Occupation of frontier NOs:
         0.0000   1.0000   1.0000   2.0000
      Number of electrons: 40.000000
      Number of unpaired electrons: n_u =  2.00000, n_u,nl =  2.00000
      NO participation ratio (PR_NO):  2.000000
    
    NDOs
      Leading detachment eigenvalues:
        -1.0000  -0.0000
      Leading attachment eigenvalues:
         1.0000   0.0000
      Number of detached / attached electrons: p_D =  1.0000, p_A =  1.0000
      Number of involved orbitals: PR_D =  1.000000, PR_A =  1.000000
    
    Mulliken Population Analysis (State/Difference DM)
    Atom      Charge (e)              h+              e-           Del q
    --------------------------------------------------------------------
     1 O        0.296351        0.991823       -0.002840        0.988983
     2 H        0.356771        0.004862       -0.000427        0.004435
     3 H        0.356190        0.003309       -0.000801        0.002507
     4 O       -0.567935        0.000004       -0.002538       -0.002534
     5 H        0.280093        0.000000       -0.000658       -0.000658
     6 H        0.300103        0.000000       -0.000359       -0.000359
     7 O       -0.609745        0.000000       -0.000525       -0.000524
     8 H        0.338122        0.000001       -0.000093       -0.000092
     9 H        0.241783       -0.000000       -0.000434       -0.000434
    10 O       -1.558358        0.000000       -0.958838       -0.958838
    11 H        0.294352        0.000000       -0.013581       -0.013581
    12 H        0.272274        0.000000       -0.018905       -0.018905
    --------------------------------------------------------------------
    Sum:       -0.000000        1.000000       -1.000000       -0.000000
    
    Multipole moment analysis of the density matrix
      Molecular charge:                      -0.000000
      Number of electrons:                   40.000000
        Center of electronic charge [Ang]: [ -0.022085,   0.060907,  -0.064426]
      Total nuclear charge:                  40.000000
        Center of nuclear charge [Ang]:    [  0.034553,   0.018780,  -0.012035]
      Dipole moment [D]:                     16.889111
        Cartesian components [D]:          [ 10.881790,  -8.093738,  10.065789]
      RMS size of the density [Ang]:         2.608290
        Cartesian components [Ang]:        [  1.159889,   2.088512,   1.046879]
    
    Exciton analysis of the difference density matrix
      <r_h> [Ang]:                  [  0.086285,  -0.649832,   0.878503]
      <r_e> [Ang]:                  [ -1.050894,   1.845208,  -1.480699]
      |<r_e - r_h>| [Ang]:            3.617213
      Hole size [Ang]:                0.122783
        Cartesian components [Ang]: [  0.070897,   0.070893,   0.070877]
      Electron size [Ang]:            0.664370
        Cartesian components [Ang]: [  0.405513,   0.336527,   0.404594]

  Singlet 6 :
  -------------------------
    NOs
      Occupation of frontier NOs:
         0.0000   1.0000   1.0000   2.0000
      Number of electrons: 40.000000
      Number of unpaired electrons: n_u =  2.00000, n_u,nl =  2.00000
      NO participation ratio (PR_NO):  2.000000
    
    NDOs
      Leading detachment eigenvalues:
        -1.0000  -0.0000
      Leading attachment eigenvalues:
         1.0000   0.0000
      Number of detached / attached electrons: p_D =  1.0000, p_A =  1.0000
      Number of involved orbitals: PR_D =  1.000000, PR_A =  1.000000
    
    Mulliken Population Analysis (State/Difference DM)
    Atom      Charge (e)              h+              e-           Del q
    --------------------------------------------------------------------
     1 O        0.197695        0.991823       -0.101495        0.890328
     2 H        0.329305        0.004862       -0.027894       -0.023032
     3 H        0.300227        0.003309       -0.056764       -0.053455
     4 O       -1.351147        0.000004       -0.785749       -0.785745
     5 H        0.271375        0.000000       -0.009377       -0.009376
     6 H        0.292992        0.000000       -0.007470       -0.007470
     7 O       -0.617657        0.000000       -0.008436       -0.008436
     8 H        0.336988        0.000001       -0.001228       -0.001226
     9 H        0.241929       -0.000000       -0.000288       -0.000288
    10 O       -0.600376        0.000000       -0.000856       -0.000856
    11 H        0.307794        0.000000       -0.000140       -0.000139
    12 H        0.290874        0.000000       -0.000305       -0.000305
    --------------------------------------------------------------------
    Sum:        0.000000        1.000000       -1.000000        0.000000
    
    Multipole moment analysis of the density matrix
      Molecular charge:                      0.000000
      Number of electrons:                   40.000000
        Center of electronic charge [Ang]: [  0.037562,   0.047989,  -0.008802]
      Total nuclear charge:                  40.000000
        Center of nuclear charge [Ang]:    [  0.034554,   0.018780,  -0.012035]
      Dipole moment [D]:                     5.675635
        Cartesian components [D]:          [ -0.578082,  -5.611846,  -0.621159]
      RMS size of the density [Ang]:         2.603251
        Cartesian components [Ang]:        [  1.172087,   2.084542,   1.028501]
    
    Exciton analysis of the difference density matrix
      <r_h> [Ang]:                  [  0.086285,  -0.649832,   0.878503]
      <r_e> [Ang]:                  [  1.334987,   1.328492,   0.744264]
      |<r_e - r_h>| [Ang]:            2.343297
      Hole size [Ang]:                0.122783
        Cartesian components [Ang]: [  0.070897,   0.070893,   0.070877]
      Electron size [Ang]:            1.345107
        Cartesian components [Ang]: [  0.813276,   1.016965,   0.337161]

  Singlet 7 :
  -------------------------
    NOs
      Occupation of frontier NOs:
         0.0000   1.0000   1.0000   2.0000
      Number of electrons: 40.000000
      Number of unpaired electrons: n_u =  2.00000, n_u,nl =  2.00000
      NO participation ratio (PR_NO):  2.000000
    
    NDOs
      Leading detachment eigenvalues:
        -1.0000  -0.0000
      Leading attachment eigenvalues:
         1.0000   0.0000
      Number of detached / attached electrons: p_D =  1.0000, p_A =  1.0000
      Number of involved orbitals: PR_D =  1.000000, PR_A =  1.000000
    
    Mulliken Population Analysis (State/Difference DM)
    Atom      Charge (e)              h+              e-           Del q
    --------------------------------------------------------------------
     1 O       -0.408221        0.991823       -0.707412        0.284411
     2 H        0.349436        0.004862       -0.007762       -0.002900
     3 H        0.334103        0.003309       -0.022888       -0.019579
     4 O       -0.603432        0.000004       -0.038034       -0.038030
     5 H        0.280276        0.000000       -0.000475       -0.000475
     6 H        0.298827        0.000000       -0.001635       -0.001635
     7 O       -0.787372        0.000000       -0.178151       -0.178150
     8 H        0.314509        0.000001       -0.023706       -0.023705
     9 H        0.223112       -0.000000       -0.019105       -0.019105
    10 O       -0.600246        0.000000       -0.000726       -0.000726
    11 H        0.307861        0.000000       -0.000072       -0.000072
    12 H        0.291146        0.000000       -0.000033       -0.000033
    --------------------------------------------------------------------
    Sum:        0.000000        1.000000       -1.000000        0.000000
    
    Multipole moment analysis of the density matrix
      Molecular charge:                      0.000000
      Number of electrons:                   40.000000
        Center of electronic charge [Ang]: [  0.002879,  -0.011463,  -0.011046]
      Total nuclear charge:                  40.000000
        Center of nuclear charge [Ang]:    [  0.034554,   0.018780,  -0.012035]
      Dipole moment [D]:                     8.416152
        Cartesian components [D]:          [  6.085509,   5.810518,  -0.189941]
      RMS size of the density [Ang]:         2.593107
        Cartesian components [Ang]:        [  1.149962,   2.084063,   1.028820]
    
    Exciton analysis of the difference density matrix
      <r_h> [Ang]:                  [  0.086285,  -0.649832,   0.878503]
      <r_e> [Ang]:                  [ -0.052335,  -1.049580,   0.654486]
      |<r_e - r_h>| [Ang]:            0.478745
      Hole size [Ang]:                0.122783
        Cartesian components [Ang]: [  0.070897,   0.070893,   0.070877]
      Electron size [Ang]:            1.458703
        Cartesian components [Ang]: [  0.574194,   1.237263,   0.517007]

  Singlet 8 :
  -------------------------
    NOs
      Occupation of frontier NOs:
         0.0000   1.0000   1.0000   2.0000
      Number of electrons: 40.000000
      Number of unpaired electrons: n_u =  2.00000, n_u,nl =  2.00000
      NO participation ratio (PR_NO):  2.000000
    
    NDOs
      Leading detachment eigenvalues:
        -1.0000  -0.0000
      Leading attachment eigenvalues:
         1.0000   0.0000
      Number of detached / attached electrons: p_D =  1.0000, p_A =  1.0000
      Number of involved orbitals: PR_D =  1.000000, PR_A =  1.000000
    
    Mulliken Population Analysis (State/Difference DM)
    Atom      Charge (e)              h+              e-           Del q
    --------------------------------------------------------------------
     1 O        0.209069        0.991823       -0.090122        0.901702
     2 H        0.346796        0.004862       -0.010402       -0.005540
     3 H        0.306113        0.003309       -0.050878       -0.047569
     4 O       -1.320801        0.000004       -0.755403       -0.755399
     5 H        0.251196        0.000000       -0.029555       -0.029555
     6 H        0.251591        0.000000       -0.048872       -0.048872
     7 O       -0.615767        0.000000       -0.006547       -0.006546
     8 H        0.337789        0.000001       -0.000426       -0.000425
     9 H        0.241810       -0.000000       -0.000407       -0.000407
    10 O       -0.603639        0.000000       -0.004119       -0.004119
    11 H        0.306062        0.000000       -0.001872       -0.001872
    12 H        0.289782        0.000000       -0.001398       -0.001398
    --------------------------------------------------------------------
    Sum:        0.000000        1.000000       -1.000000        0.000000
    
    Multipole moment analysis of the density matrix
      Molecular charge:                      0.000000
      Number of electrons:                   40.000000
        Center of electronic charge [Ang]: [  0.039154,   0.049941,  -0.009499]
      Total nuclear charge:                  40.000000
        Center of nuclear charge [Ang]:    [  0.034554,   0.018780,  -0.012035]
      Dipole moment [D]:                     6.071341
        Cartesian components [D]:          [ -0.883866,  -5.986863,  -0.487279]
      RMS size of the density [Ang]:         2.604421
        Cartesian components [Ang]:        [  1.173843,   2.085023,   1.028486]
    
    Exciton analysis of the difference density matrix
      <r_h> [Ang]:                  [  0.086285,  -0.649832,   0.878503]
      <r_e> [Ang]:                  [  1.398649,   1.406568,   0.716391]
      |<r_e - r_h>| [Ang]:            2.444864
      Hole size [Ang]:                0.122783
        Cartesian components [Ang]: [  0.070897,   0.070893,   0.070877]
      Electron size [Ang]:            1.311195
        Cartesian components [Ang]: [  0.810552,   0.953199,   0.391983]

  Singlet 9 :
  -------------------------
    NOs
      Occupation of frontier NOs:
         0.0000   1.0000   1.0000   2.0000
      Number of electrons: 40.000000
      Number of unpaired electrons: n_u =  2.00000, n_u,nl =  2.00000
      NO participation ratio (PR_NO):  2.000000
    
    NDOs
      Leading detachment eigenvalues:
        -1.0000  -0.0000
      Leading attachment eigenvalues:
         1.0000   0.0000
      Number of detached / attached electrons: p_D =  1.0000, p_A =  1.0000
      Number of involved orbitals: PR_D =  1.000000, PR_A =  1.000000
    
    Mulliken Population Analysis (State/Difference DM)
    Atom      Charge (e)              h+              e-           Del q
    --------------------------------------------------------------------
     1 O        0.014301        0.991823       -0.284890        0.706934
     2 H        0.323877        0.004862       -0.033322       -0.028459
     3 H        0.230284        0.003309       -0.126707       -0.123398
     4 O       -0.742065        0.000004       -0.176667       -0.176663
     5 H        0.273450        0.000000       -0.007301       -0.007301
     6 H        0.277357        0.000000       -0.023105       -0.023105
     7 O       -0.934036        0.000000       -0.324815       -0.324815
     8 H        0.323408        0.000001       -0.014807       -0.014806
     9 H        0.235047       -0.000000       -0.007170       -0.007170
    10 O       -0.600291        0.000000       -0.000771       -0.000771
    11 H        0.307597        0.000000       -0.000336       -0.000336
    12 H        0.291070        0.000000       -0.000110       -0.000110
    --------------------------------------------------------------------
    Sum:       -0.000000        1.000000       -1.000000       -0.000000
    
    Multipole moment analysis of the density matrix
      Molecular charge:                      -0.000000
      Number of electrons:                   40.000000
        Center of electronic charge [Ang]: [  0.005409,  -0.008128,  -0.014820]
      Total nuclear charge:                  40.000000
        Center of nuclear charge [Ang]:    [  0.034553,   0.018780,  -0.012035]
      Dipole moment [D]:                     7.639871
        Cartesian components [D]:          [  5.599421,   5.169904,   0.534992]
      RMS size of the density [Ang]:         2.603034
        Cartesian components [Ang]:        [  1.157690,   2.093085,   1.026904]
    
    Exciton analysis of the difference density matrix
      <r_h> [Ang]:                  [  0.086285,  -0.649832,   0.878503]
      <r_e> [Ang]:                  [  0.048866,  -0.916207,   0.503559]
      |<r_e - r_h>| [Ang]:            0.461453
      Hole size [Ang]:                0.122783
        Cartesian components [Ang]: [  0.070897,   0.070893,   0.070877]
      Electron size [Ang]:            2.151873
        Cartesian components [Ang]: [  1.021906,   1.816009,   0.537007]

  Singlet 10 :
  -------------------------
    NOs
      Occupation of frontier NOs:
         0.0000   1.0000   1.0000   2.0000
      Number of electrons: 40.000000
      Number of unpaired electrons: n_u =  2.00000, n_u,nl =  2.00000
      NO participation ratio (PR_NO):  2.000000
    
    NDOs
      Leading detachment eigenvalues:
        -1.0000  -0.0000
      Leading attachment eigenvalues:
         1.0000   0.0000
      Number of detached / attached electrons: p_D =  1.0000, p_A =  1.0000
      Number of involved orbitals: PR_D =  1.000000, PR_A =  1.000000
    
    Mulliken Population Analysis (State/Difference DM)
    Atom      Charge (e)              h+              e-           Del q
    --------------------------------------------------------------------
     1 O        0.102927        0.991823       -0.196264        0.795559
     2 H        0.340378        0.004862       -0.016821       -0.011959
     3 H        0.298767        0.003309       -0.058224       -0.054915
     4 O       -0.616758        0.000004       -0.051360       -0.051356
     5 H        0.278645        0.000000       -0.002106       -0.002106
     6 H        0.292769        0.000000       -0.007693       -0.007693
     7 O       -1.222783        0.000000       -0.613562       -0.613562
     8 H        0.305332        0.000001       -0.032883       -0.032882
     9 H        0.223327       -0.000000       -0.018890       -0.018890
    10 O       -0.600740        0.000000       -0.001220       -0.001220
    11 H        0.307303        0.000000       -0.000630       -0.000630
    12 H        0.290832        0.000000       -0.000348       -0.000348
    --------------------------------------------------------------------
    Sum:        0.000000        1.000000       -1.000000        0.000000
    
    Multipole moment analysis of the density matrix
      Molecular charge:                      0.000000
      Number of electrons:                   40.000000
        Center of electronic charge [Ang]: [ -0.006801,  -0.036962,  -0.021645]
      Total nuclear charge:                  40.000000
        Center of nuclear charge [Ang]:    [  0.034554,   0.018780,  -0.012035]
      Dipole moment [D]:                     13.462311
        Cartesian components [D]:          [  7.945337,  10.709638,   1.846375]
      RMS size of the density [Ang]:         2.612464
        Cartesian components [Ang]:        [  1.154800,   2.107638,   1.024337]
    
    Exciton analysis of the difference density matrix
      <r_h> [Ang]:                  [  0.086285,  -0.649832,   0.878503]
      <r_e> [Ang]:                  [ -0.439541,  -2.069549,   0.230537]
      |<r_e - r_h>| [Ang]:            1.646799
      Hole size [Ang]:                0.122783
        Cartesian components [Ang]: [  0.070897,   0.070893,   0.070877]
      Electron size [Ang]:            1.796241
        Cartesian components [Ang]: [  0.766012,   1.533476,   0.536807]

  Singlet 11 :
  -------------------------
    NOs
      Occupation of frontier NOs:
         0.0000   1.0000   1.0000   2.0000
      Number of electrons: 40.000000
      Number of unpaired electrons: n_u =  2.00000, n_u,nl =  2.00000
      NO participation ratio (PR_NO):  2.000000
    
    NDOs
      Leading detachment eigenvalues:
        -1.0000  -0.0000
      Leading attachment eigenvalues:
         1.0000   0.0000
      Number of detached / attached electrons: p_D =  1.0000, p_A =  1.0000
      Number of involved orbitals: PR_D =  1.000000, PR_A =  1.000000
    
    Mulliken Population Analysis (State/Difference DM)
    Atom      Charge (e)              h+              e-           Del q
    --------------------------------------------------------------------
     1 O        0.130517        0.991823       -0.168674        0.823150
     2 H        0.351264        0.004862       -0.005935       -0.001073
     3 H        0.351077        0.003309       -0.005914       -0.002605
     4 O       -0.568313        0.000004       -0.002915       -0.002911
     5 H        0.280434        0.000000       -0.000317       -0.000317
     6 H        0.300357        0.000000       -0.000105       -0.000105
     7 O       -1.136548        0.000000       -0.527328       -0.527327
     8 H        0.314531        0.000001       -0.023684       -0.023683
     9 H        0.123303       -0.000000       -0.118914       -0.118914
    10 O       -0.680789        0.000000       -0.081269       -0.081269
    11 H        0.272788        0.000000       -0.035146       -0.035145
    12 H        0.261380        0.000000       -0.029800       -0.029800
    --------------------------------------------------------------------
    Sum:        0.000000        1.000000       -1.000000        0.000000
    
    Multipole moment analysis of the density matrix
      Molecular charge:                      0.000000
      Number of electrons:                   40.000000
        Center of electronic charge [Ang]: [ -0.010640,  -0.033838,  -0.031682]
      Total nuclear charge:                  40.000000
        Center of nuclear charge [Ang]:    [  0.034554,   0.018780,  -0.012035]
      Dipole moment [D]:                     13.850761
        Cartesian components [D]:          [  8.683027,  10.109407,   3.774719]
      RMS size of the density [Ang]:         2.616273
        Cartesian components [Ang]:        [  1.152937,   2.111844,   1.027491]
    
    Exciton analysis of the difference density matrix
      <r_h> [Ang]:                  [  0.086285,  -0.649832,   0.878503]
      <r_e> [Ang]:                  [ -0.593124,  -1.944584,  -0.170933]
      |<r_e - r_h>| [Ang]:            1.799804
      Hole size [Ang]:                0.122783
        Cartesian components [Ang]: [  0.070897,   0.070893,   0.070877]
      Electron size [Ang]:            2.098927
        Cartesian components [Ang]: [  0.508836,   1.885267,   0.769641]

  Singlet 12 :
  -------------------------
    NOs
      Occupation of frontier NOs:
         0.0000   1.0000   1.0000   2.0000
      Number of electrons: 40.000000
      Number of unpaired electrons: n_u =  2.00000, n_u,nl =  2.00000
      NO participation ratio (PR_NO):  2.000000
    
    NDOs
      Leading detachment eigenvalues:
        -1.0000  -0.0000
      Leading attachment eigenvalues:
         1.0000   0.0000
      Number of detached / attached electrons: p_D =  1.0000, p_A =  1.0000
      Number of involved orbitals: PR_D =  1.000000, PR_A =  1.000000
    
    Mulliken Population Analysis (State/Difference DM)
    Atom      Charge (e)              h+              e-           Del q
    --------------------------------------------------------------------
     1 O        0.190921        0.991823       -0.108270        0.883554
     2 H        0.351402        0.004862       -0.005797       -0.000935
     3 H        0.349389        0.003309       -0.007602       -0.004293
     4 O       -0.571925        0.000004       -0.006527       -0.006523
     5 H        0.280338        0.000000       -0.000413       -0.000413
     6 H        0.297321        0.000000       -0.003141       -0.003141
     7 O       -0.916918        0.000000       -0.307697       -0.307697
     8 H        0.332730        0.000001       -0.005486       -0.005485
     9 H        0.231038       -0.000000       -0.011179       -0.011179
    10 O       -0.903024        0.000000       -0.303504       -0.303504
    11 H        0.175300        0.000000       -0.132633       -0.132633
    12 H        0.183429        0.000000       -0.107751       -0.107751
    --------------------------------------------------------------------
    Sum:        0.000000        1.000000       -1.000000        0.000000
    
    Multipole moment analysis of the density matrix
      Molecular charge:                      0.000000
      Number of electrons:                   40.000000
        Center of electronic charge [Ang]: [ -0.013951,   0.012754,  -0.046335]
      Total nuclear charge:                  40.000000
        Center of nuclear charge [Ang]:    [  0.034554,   0.018780,  -0.012035]
      Dipole moment [D]:                     11.472341
        Cartesian components [D]:          [  9.319126,   1.157836,   6.589985]
      RMS size of the density [Ang]:         2.611285
        Cartesian components [Ang]:        [  1.155248,   2.099267,   1.037927]
    
    Exciton analysis of the difference density matrix
      <r_h> [Ang]:                  [  0.086285,  -0.649832,   0.878503]
      <r_e> [Ang]:                  [ -0.725556,  -0.080917,  -0.757056]
      |<r_e - r_h>| [Ang]:            1.912538
      Hole size [Ang]:                0.122783
        Cartesian components [Ang]: [  0.070897,   0.070893,   0.070877]
      Electron size [Ang]:            2.535452
        Cartesian components [Ang]: [  0.548543,   2.274041,   0.977933]

  Singlet 13 :
  -------------------------
    NOs
      Occupation of frontier NOs:
         0.0000   1.0000   1.0000   2.0000
      Number of electrons: 40.000000
      Number of unpaired electrons: n_u =  2.00000, n_u,nl =  2.00000
      NO participation ratio (PR_NO):  2.000000
    
    NDOs
      Leading detachment eigenvalues:
        -1.0000  -0.0000
      Leading attachment eigenvalues:
         1.0000   0.0000
      Number of detached / attached electrons: p_D =  1.0000, p_A =  1.0000
      Number of involved orbitals: PR_D =  1.000000, PR_A =  1.000000
    
    Mulliken Population Analysis (State/Difference DM)
    Atom      Charge (e)              h+              e-           Del q
    --------------------------------------------------------------------
     1 O        0.116840        0.991823       -0.182351        0.809472
     2 H        0.341474        0.004862       -0.015725       -0.010863
     3 H        0.317546        0.003309       -0.039445       -0.036136
     4 O       -0.577875        0.000004       -0.012478       -0.012473
     5 H        0.280131        0.000000       -0.000620       -0.000620
     6 H        0.299295        0.000000       -0.001167       -0.001167
     7 O       -0.897582        0.000000       -0.288362       -0.288361
     8 H        0.298368        0.000001       -0.039848       -0.039846
     9 H        0.093640       -0.000000       -0.148577       -0.148577
    10 O       -0.750875        0.000000       -0.151355       -0.151355
    11 H        0.240926        0.000000       -0.067008       -0.067007
    12 H        0.238113        0.000000       -0.053066       -0.053066
    --------------------------------------------------------------------
    Sum:       -0.000000        1.000000       -1.000000       -0.000000
    
    Multipole moment analysis of the density matrix
      Molecular charge:                      -0.000000
      Number of electrons:                   40.000000
        Center of electronic charge [Ang]: [ -0.008727,  -0.013048,  -0.034955]
      Total nuclear charge:                  40.000000
        Center of nuclear charge [Ang]:    [  0.034553,   0.018780,  -0.012035]
      Dipole moment [D]:                     11.221853
        Cartesian components [D]:          [  8.315375,   6.115018,   4.403530]
      RMS size of the density [Ang]:         2.611699
        Cartesian components [Ang]:        [  1.152940,   2.104050,   1.031833]
    
    Exciton analysis of the difference density matrix
      <r_h> [Ang]:                  [  0.086285,  -0.649832,   0.878503]
      <r_e> [Ang]:                  [ -0.516581,  -1.112975,  -0.301848]
      |<r_e - r_h>| [Ang]:            1.403986
      Hole size [Ang]:                0.122783
        Cartesian components [Ang]: [  0.070897,   0.070893,   0.070877]
      Electron size [Ang]:            2.446016
        Cartesian components [Ang]: [  0.585323,   2.177971,   0.947013]

  Singlet 14 :
  -------------------------
    NOs
      Occupation of frontier NOs:
         0.0000   1.0000   1.0000   2.0000
      Number of electrons: 40.000000
      Number of unpaired electrons: n_u =  2.00000, n_u,nl =  2.00000
      NO participation ratio (PR_NO):  2.000000
    
    NDOs
      Leading detachment eigenvalues:
        -1.0000  -0.0000
      Leading attachment eigenvalues:
         1.0000   0.0000
      Number of detached / attached electrons: p_D =  1.0000, p_A =  1.0000
      Number of involved orbitals: PR_D =  1.000000, PR_A =  1.000000
    
    Mulliken Population Analysis (State/Difference DM)
    Atom      Charge (e)              h+              e-           Del q
    --------------------------------------------------------------------
     1 O       -0.367430        0.991823       -0.666620        0.325203
     2 H        0.215434        0.004862       -0.141764       -0.136902
     3 H        0.285828        0.003309       -0.071163       -0.067855
     4 O       -0.581129        0.000004       -0.015731       -0.015727
     5 H        0.279369        0.000000       -0.001382       -0.001382
     6 H        0.297364        0.000000       -0.003098       -0.003098
     7 O       -0.660825        0.000000       -0.051604       -0.051604
     8 H        0.334760        0.000001       -0.003455       -0.003454
     9 H        0.223092       -0.000000       -0.019124       -0.019124
    10 O       -0.614483        0.000000       -0.014963       -0.014963
    11 H        0.302101        0.000000       -0.005832       -0.005832
    12 H        0.285917        0.000000       -0.005263       -0.005263
    --------------------------------------------------------------------
    Sum:        0.000000        1.000000       -1.000000        0.000000
    
    Multipole moment analysis of the density matrix
      Molecular charge:                      0.000000
      Number of electrons:                   40.000000
        Center of electronic charge [Ang]: [  0.005410,  -0.003246,  -0.009005]
      Total nuclear charge:                  40.000000
        Center of nuclear charge [Ang]:    [  0.034554,   0.018780,  -0.012035]
      Dipole moment [D]:                     7.042642
        Cartesian components [D]:          [  5.599266,   4.231813,  -0.582057]
      RMS size of the density [Ang]:         2.588216
        Cartesian components [Ang]:        [  1.150422,   2.076854,   1.030568]
    
    Exciton analysis of the difference density matrix
      <r_h> [Ang]:                  [  0.086285,  -0.649832,   0.878503]
      <r_e> [Ang]:                  [  0.048898,  -0.720902,   0.736123]
      |<r_e - r_h>| [Ang]:            0.163465
      Hole size [Ang]:                0.122783
        Cartesian components [Ang]: [  0.070897,   0.070893,   0.070877]
      Electron size [Ang]:            1.255943
        Cartesian components [Ang]: [  0.610916,   0.952911,   0.544184]

  Singlet 15 :
[...]
 172  H 2   d 4     -0.00100
 173  H 2   d 5     -0.00545
 174  H 2   d 1     -0.01267
 175  H 2   d 2     -0.00577
 176  H 2   d 3     -0.00496
 177  H 2   d 4      0.00951
 178  H 2   d 5     -0.00760
 179  H 2   f 1      0.00073
 180  H 2   f 2      0.00010
 181  H 2   f 3     -0.00033
 182  H 2   f 4      0.00005
 183  H 2   f 5      0.00065
 184  H 2   f 6      0.00002
 185  H 2   f 7     -0.00010
 186  H 2   f 1      0.00057
 187  H 2   f 2     -0.00185
 188  H 2   f 3      0.00174
 189  H 2   f 4     -0.00158
 190  H 2   f 5     -0.00125
 191  H 2   f 6      0.00007
 192  H 2   f 7     -0.00261
 193  H 2   g 1      0.00031
 194  H 2   g 2     -0.00013
 195  H 2   g 3     -0.00001
 196  H 2   g 4      0.00008
 197  H 2   g 5     -0.00000
 198  H 2   g 6     -0.00012
 199  H 2   g 7      0.00005
 200  H 2   g 8     -0.00002
 201  H 2   g 9     -0.00008
 202  O 2   s        0.00022
 203  O 2   s        0.00670
 204  O 2   s       -0.00005
 205  O 2   s        0.00512
 206  O 2   s        0.14392
 207  O 2   s        0.21027
 208  O 2   px      -0.01009
 209  O 2   py      -0.00741
 210  O 2   pz       0.00798
 211  O 2   px      -0.01686
 212  O 2   py      -0.01203
 213  O 2   pz       0.01248
 214  O 2   px      -0.01378
 215  O 2   py      -0.00920
 216  O 2   pz       0.03013
 217  O 2   px       0.02932
 218  O 2   py      -0.09103
 219  O 2   pz       0.01480
 220  O 2   px       0.11750
 221  O 2   py       0.09510
 222  O 2   pz       0.03299
 223  O 2   d 1     -0.00026
 224  O 2   d 2     -0.00027
 225  O 2   d 3      0.00010
 226  O 2   d 4      0.00013
 227  O 2   d 5     -0.00017
 228  O 2   d 1      0.00008
 229  O 2   d 2      0.00084
 230  O 2   d 3      0.00026
 231  O 2   d 4     -0.00052
 232  O 2   d 5      0.00072
 233  O 2   d 1     -0.00243
 234  O 2   d 2      0.00262
 235  O 2   d 3      0.00009
 236  O 2   d 4      0.00590
 237  O 2   d 5     -0.00555
 238  O 2   d 1     -0.04200
 239  O 2   d 2      0.00154
 240  O 2   d 3      0.01300
 241  O 2   d 4     -0.00782
 242  O 2   d 5      0.04029
 243  O 2   f 1     -0.00018
 244  O 2   f 2     -0.00011
 245  O 2   f 3     -0.00021
 246  O 2   f 4      0.00014
 247  O 2   f 5     -0.00002
 248  O 2   f 6      0.00000
 249  O 2   f 7     -0.00004
 250  O 2   f 1      0.00076
 251  O 2   f 2      0.00090
 252  O 2   f 3      0.00147
 253  O 2   f 4     -0.00098
 254  O 2   f 5      0.00014
 255  O 2   f 6     -0.00006
 256  O 2   f 7     -0.00018
 257  O 2   f 1     -0.00065
 258  O 2   f 2     -0.00355
 259  O 2   f 3      0.00349
 260  O 2   f 4      0.00473
 261  O 2   f 5     -0.00253
 262  O 2   f 6      0.00499
 263  O 2   f 7      0.00105
 264  O 2   g 1     -0.00013
 265  O 2   g 2     -0.00006
 266  O 2   g 3     -0.00001
 267  O 2   g 4     -0.00007
 268  O 2   g 5      0.00001
 269  O 2   g 6     -0.00007
 270  O 2   g 7      0.00009
 271  O 2   g 8     -0.00007
 272  O 2   g 9     -0.00000
 273  O 2   g 1      0.00134
 274  O 2   g 2     -0.00020
 275  O 2   g 3      0.00074
 276  O 2   g 4      0.00077
 277  O 2   g 5      0.00006
 278  O 2   g 6      0.00022
 279  O 2   g 7     -0.00114
 280  O 2   g 8      0.00102
 281  O 2   g 9     -0.00035
 282  O 2   h 1      0.00011
 283  O 2   h 2     -0.00007
 284  O 2   h 3      0.00008
 285  O 2   h 4      0.00008
 286  O 2   h 5     -0.00001
 287  O 2   h 6     -0.00004
 288  O 2   h 7      0.00015
 289  O 2   h 8     -0.00010
 290  O 2   h 9     -0.00003
 291  O 2   h10      0.00009
 292  O 2   h11     -0.00003
 293  H 3   s       -0.00187
 294  H 3   s        0.00252
 295  H 3   s        0.02919
 296  H 3   s       -0.21215
 297  H 3   s       -0.02871
 298  H 3   px      -0.00004
 299  H 3   py       0.00025
 300  H 3   pz       0.00004
 301  H 3   px      -0.00072
 302  H 3   py      -0.00270
 303  H 3   pz       0.00016
 304  H 3   px       0.00273
 305  H 3   py       0.01479
 306  H 3   pz      -0.00288
 307  H 3   px       0.00736
 308  H 3   py       0.06323
 309  H 3   pz       0.00327
 310  H 3   d 1      0.00017
 311  H 3   d 2      0.00028
 312  H 3   d 3      0.00004
 313  H 3   d 4      0.00035
 314  H 3   d 5     -0.00015
 315  H 3   d 1     -0.00132
 316  H 3   d 2     -0.00163
 317  H 3   d 3      0.00025
 318  H 3   d 4     -0.00159
 319  H 3   d 5      0.00117
 320  H 3   d 1     -0.01341
 321  H 3   d 2     -0.01031
 322  H 3   d 3      0.01538
 323  H 3   d 4      0.00313
 324  H 3   d 5      0.01801
 325  H 3   f 1      0.00003
 326  H 3   f 2     -0.00001
 327  H 3   f 3     -0.00003
 328  H 3   f 4      0.00011
 329  H 3   f 5      0.00013
 330  H 3   f 6      0.00020
 331  H 3   f 7      0.00009
 332  H 3   f 1     -0.00151
 333  H 3   f 2      0.00142
 334  H 3   f 3     -0.00200
 335  H 3   f 4     -0.00288
 336  H 3   f 5     -0.00196
 337  H 3   f 6     -0.00341
 338  H 3   f 7     -0.00386
 339  H 3   g 1      0.00024
 340  H 3   g 2      0.00015
 341  H 3   g 3      0.00020
 342  H 3   g 4      0.00028
 343  H 3   g 5     -0.00007
 344  H 3   g 6      0.00011
 345  H 3   g 7     -0.00006
 346  H 3   g 8      0.00013
 347  H 3   g 9      0.00001
 348  H 4   s        0.00025
 349  H 4   s        0.00087
 350  H 4   s       -0.02649
 351  H 4   s       -0.28649
 352  H 4   s        0.22985
 353  H 4   px       0.00067
 354  H 4   py      -0.00078
 355  H 4   pz      -0.00022
 356  H 4   px      -0.00311
 357  H 4   py       0.00321
 358  H 4   pz       0.00146
 359  H 4   px       0.01764
 360  H 4   py      -0.01242
 361  H 4   pz      -0.01382
 362  H 4   px       0.07547
 363  H 4   py      -0.01478
 364  H 4   pz      -0.06083
 365  H 4   d 1     -0.00022
 366  H 4   d 2      0.00008
 367  H 4   d 3      0.00036
 368  H 4   d 4      0.00015
 369  H 4   d 5      0.00018
 370  H 4   d 1     -0.00037
 371  H 4   d 2     -0.00018
 372  H 4   d 3     -0.00195
 373  H 4   d 4     -0.00105
 374  H 4   d 5     -0.00029
 375  H 4   d 1      0.00303
 376  H 4   d 2     -0.00382
 377  H 4   d 3     -0.00010
 378  H 4   d 4      0.01947
 379  H 4   d 5     -0.01118
 380  H 4   f 1      0.00013
 381  H 4   f 2     -0.00011
 382  H 4   f 3      0.00011
 383  H 4   f 4     -0.00009
 384  H 4   f 5      0.00003
 385  H 4   f 6      0.00026
 386  H 4   f 7      0.00003
 387  H 4   f 1     -0.00006
 388  H 4   f 2      0.00098
 389  H 4   f 3     -0.00131
 390  H 4   f 4      0.00096
 391  H 4   f 5      0.00129
 392  H 4   f 6     -0.00316
 393  H 4   f 7      0.00204
 394  H 4   g 1      0.00000
 395  H 4   g 2     -0.00006
 396  H 4   g 3      0.00013
 397  H 4   g 4      0.00001
 398  H 4   g 5      0.00008
 399  H 4   g 6     -0.00008
 400  H 4   g 7     -0.00010
 401  H 4   g 8      0.00017
 402  H 4   g 9     -0.00022
 403  O 3   s        0.00172
 404  O 3   s       -0.03313
 405  O 3   s       -0.00082
 406  O 3   s       -0.01532
 407  O 3   s       -0.09543
 408  O 3   s       -0.45532
 409  O 3   px      -0.01995
 410  O 3   py       0.02147
 411  O 3   pz       0.01671
 412  O 3   px      -0.02848
 413  O 3   py       0.03668
 414  O 3   pz       0.02485
 415  O 3   px      -0.05573
 416  O 3   py       0.04400
 417  O 3   pz       0.04339
 418  O 3   px      -0.17582
 419  O 3   py      -0.06615
 420  O 3   pz       0.08744
 421  O 3   px      -0.04545
 422  O 3   py       0.24345
 423  O 3   pz       0.12809
 424  O 3   d 1     -0.00022
 425  O 3   d 2     -0.00022
 426  O 3   d 3      0.00036
 427  O 3   d 4      0.00033
 428  O 3   d 5      0.00011
 429  O 3   d 1      0.00155
 430  O 3   d 2      0.00141
 431  O 3   d 3     -0.00210
 432  O 3   d 4     -0.00180
 433  O 3   d 5     -0.00122
 434  O 3   d 1     -0.00933
 435  O 3   d 2     -0.00512
 436  O 3   d 3      0.01270
 437  O 3   d 4      0.01241
 438  O 3   d 5      0.00445
 439  O 3   d 1      0.00437
 440  O 3   d 2     -0.00116
 441  O 3   d 3      0.01824
 442  O 3   d 4      0.04845
 443  O 3   d 5     -0.01244
 444  O 3   f 1     -0.00024
 445  O 3   f 2     -0.00001
 446  O 3   f 3     -0.00020
 447  O 3   f 4     -0.00010
 448  O 3   f 5     -0.00004
 449  O 3   f 6     -0.00016
 450  O 3   f 7     -0.00022
 451  O 3   f 1      0.00120
 452  O 3   f 2     -0.00059
 453  O 3   f 3      0.00146
 454  O 3   f 4     -0.00015
 455  O 3   f 5      0.00028
 456  O 3   f 6      0.00076
 457  O 3   f 7      0.00176
 458  O 3   f 1      0.01280
 459  O 3   f 2     -0.01032
 460  O 3   f 3      0.01120
 461  O 3   f 4     -0.01206
 462  O 3   f 5     -0.00105
 463  O 3   f 6      0.01066
 464  O 3   f 7      0.00751
 465  O 3   g 1     -0.00014
 466  O 3   g 2      0.00003
 467  O 3   g 3      0.00001
 468  O 3   g 4      0.00008
 469  O 3   g 5      0.00001
 470  O 3   g 6      0.00008
 471  O 3   g 7      0.00012
 472  O 3   g 8     -0.00015
 473  O 3   g 9      0.00015
 474  O 3   g 1      0.00376
 475  O 3   g 2     -0.00271
 476  O 3   g 3      0.00258
 477  O 3   g 4     -0.00022
 478  O 3   g 5      0.00017
 479  O 3   g 6     -0.00152
 480  O 3   g 7     -0.00232
 481  O 3   g 8      0.00063
 482  O 3   g 9      0.00067
 483  O 3   h 1      0.00028
 484  O 3   h 2     -0.00045
 485  O 3   h 3      0.00035
 486  O 3   h 4     -0.00003
 487  O 3   h 5     -0.00031
 488  O 3   h 6      0.00002
 489  O 3   h 7      0.00023
 490  O 3   h 8     -0.00004
 491  O 3   h 9     -0.00023
 492  O 3   h10     -0.00024
 493  O 3   h11      0.00000
 494  H 5   s        0.00171
 495  H 5   s       -0.00563
 496  H 5   s        0.17122
 497  H 5   s       -0.01288
 498  H 5   s       -0.39112
 499  H 5   px       0.00029
 500  H 5   py       0.00027
 501  H 5   pz       0.00008
 502  H 5   px      -0.00160
 503  H 5   py      -0.00060
 504  H 5   pz       0.00091
 505  H 5   px      -0.03159
 506  H 5   py      -0.04209
 507  H 5   pz      -0.01029
 508  H 5   px      -0.01946
 509  H 5   py      -0.11304
 510  H 5   pz      -0.07967
 511  H 5   d 1     -0.00043
 512  H 5   d 2     -0.00066
 513  H 5   d 3      0.00004
 514  H 5   d 4     -0.00019
 515  H 5   d 5      0.00034
 516  H 5   d 1      0.00892
 517  H 5   d 2      0.00410
 518  H 5   d 3     -0.00397
 519  H 5   d 4      0.00167
 520  H 5   d 5     -0.00308
 521  H 5   d 1      0.00090
 522  H 5   d 2      0.00879
 523  H 5   d 3     -0.00364
 524  H 5   d 4      0.00231
 525  H 5   d 5      0.00602
 526  H 5   f 1     -0.00020
 527  H 5   f 2     -0.00003
 528  H 5   f 3      0.00064
 529  H 5   f 4      0.00002
 530  H 5   f 5      0.00042
 531  H 5   f 6     -0.00026
 532  H 5   f 7      0.00098
 533  H 5   f 1     -0.00164
 534  H 5   f 2     -0.00271
 535  H 5   f 3     -0.00110
 536  H 5   f 4      0.00327
 537  H 5   f 5      0.00011
 538  H 5   f 6      0.00304
 539  H 5   f 7     -0.00039
 540  H 5   g 1      0.00000
 541  H 5   g 2      0.00010
 542  H 5   g 3     -0.00008
 543  H 5   g 4     -0.00026
 544  H 5   g 5      0.00004
 545  H 5   g 6     -0.00023
 546  H 5   g 7     -0.00004
 547  H 5   g 8     -0.00012
 548  H 5   g 9     -0.00027
 549  H 6   s        0.00323
 550  H 6   s       -0.00052
 551  H 6   s        0.23451
 552  H 6   s       -0.22517
 553  H 6   s        1.25142
 554  H 6   px       0.00251
 555  H 6   py      -0.00143
 556  H 6   pz      -0.00194
 557  H 6   px      -0.00719
 558  H 6   py       0.00203
 559  H 6   pz       0.00473
 560  H 6   px       0.01517
 561  H 6   py       0.02612
 562  H 6   pz       0.00051
 563  H 6   px       0.02618
 564  H 6   py      -0.04090
 565  H 6   pz      -0.03380
 566  H 6   d 1      0.00020
 567  H 6   d 2     -0.00059
 568  H 6   d 3      0.00025
 569  H 6   d 4      0.00015
 570  H 6   d 5      0.00061
 571  H 6   d 1     -0.00491
 572  H 6   d 2      0.00699
 573  H 6   d 3     -0.00179
 574  H 6   d 4     -0.00322
 575  H 6   d 5     -0.00444
 576  H 6   d 1      0.00982
 577  H 6   d 2     -0.01140
 578  H 6   d 3      0.00354
 579  H 6   d 4      0.02154
 580  H 6   d 5     -0.00989
 581  H 6   f 1      0.00010
 582  H 6   f 2     -0.00092
 583  H 6   f 3      0.00010
 584  H 6   f 4     -0.00076
 585  H 6   f 5     -0.00018
 586  H 6   f 6     -0.00033
 587  H 6   f 7      0.00033
 588  H 6   f 1     -0.00172
 589  H 6   f 2      0.00297
 590  H 6   f 3     -0.00025
 591  H 6   f 4      0.00313
 592  H 6   f 5      0.00167
 593  H 6   f 6     -0.00235
 594  H 6   f 7      0.00190
 595  H 6   g 1      0.00021
 596  H 6   g 2     -0.00012
 597  H 6   g 3      0.00007
 598  H 6   g 4      0.00001
 599  H 6   g 5      0.00006
 600  H 6   g 6     -0.00002
 601  H 6   g 7     -0.00016
 602  H 6   g 8      0.00024
 603  H 6   g 9     -0.00007
 604  O 4   s       -0.00001
 605  O 4   s        0.00172
 606  O 4   s       -0.00120
 607  O 4   s       -0.00696
 608  O 4   s        0.21028
 609  O 4   s        0.38294
 610  O 4   px      -0.00875
 611  O 4   py      -0.02414
 612  O 4   pz       0.01800
 613  O 4   px      -0.01719
 614  O 4   py      -0.03820
 615  O 4   pz       0.03041
 616  O 4   px       0.00808
 617  O 4   py      -0.07048
 618  O 4   pz       0.03319
 619  O 4   px       0.07168
 620  O 4   py      -0.09096
 621  O 4   pz       0.00691
 622  O 4   px       0.13985
 623  O 4   py      -0.23451
 624  O 4   pz      -0.00236
 625  O 4   d 1      0.00002
 626  O 4   d 2      0.00022
 627  O 4   d 3      0.00026
 628  O 4   d 4      0.00034
 629  O 4   d 5      0.00016
 630  O 4   d 1      0.00001
 631  O 4   d 2     -0.00042
 632  O 4   d 3     -0.00157
 633  O 4   d 4     -0.00091
 634  O 4   d 5     -0.00081
 635  O 4   d 1     -0.00602
 636  O 4   d 2      0.00266
 637  O 4   d 3     -0.00522
 638  O 4   d 4      0.00042
 639  O 4   d 5     -0.00301
 640  O 4   d 1     -0.04904
 641  O 4   d 2      0.01983
 642  O 4   d 3     -0.02295
 643  O 4   d 4     -0.00586
 644  O 4   d 5      0.00883
 645  O 4   f 1      0.00011
 646  O 4   f 2      0.00003
 647  O 4   f 3     -0.00000
 648  O 4   f 4     -0.00011
 649  O 4   f 5      0.00004
 650  O 4   f 6     -0.00008
 651  O 4   f 7      0.00021
 652  O 4   f 1      0.00016
 653  O 4   f 2     -0.00019
 654  O 4   f 3      0.00087
 655  O 4   f 4      0.00071
 656  O 4   f 5     -0.00073
 657  O 4   f 6      0.00038
 658  O 4   f 7     -0.00235
 659  O 4   f 1     -0.01478
 660  O 4   f 2      0.01031
 661  O 4   f 3     -0.00078
 662  O 4   f 4     -0.00235
 663  O 4   f 5     -0.00381
 664  O 4   f 6      0.00116
 665  O 4   f 7     -0.00005
 666  O 4   g 1      0.00027
 667  O 4   g 2     -0.00020
 668  O 4   g 3      0.00007
 669  O 4   g 4      0.00001
 670  O 4   g 5      0.00003
 671  O 4   g 6      0.00005
 672  O 4   g 7      0.00013
 673  O 4   g 8      0.00005
 674  O 4   g 9      0.00001
 675  O 4   g 1     -0.00128
 676  O 4   g 2      0.00204
 677  O 4   g 3     -0.00006
 678  O 4   g 4     -0.00054
 679  O 4   g 5      0.00048
 680  O 4   g 6     -0.00037
 681  O 4   g 7     -0.00063
 682  O 4   g 8     -0.00026
 683  O 4   g 9     -0.00062
 684  O 4   h 1      0.00022
 685  O 4   h 2      0.00013
 686  O 4   h 3     -0.00000
 687  O 4   h 4     -0.00016
 688  O 4   h 5      0.00011
 689  O 4   h 6      0.00003
 690  O 4   h 7      0.00012
 691  O 4   h 8     -0.00002
 692  O 4   h 9      0.00006
 693  O 4   h10     -0.00017
 694  O 4   h11      0.00005
 695  H 7   s       -0.00100
 696  H 7   s        0.01330
 697  H 7   s       -0.11222
 698  H 7   s       -0.39885
 699  H 7   s       -0.29088
 700  H 7   px      -0.00021
 701  H 7   py       0.00059
 702  H 7   pz      -0.00034
 703  H 7   px      -0.00159
 704  H 7   py       0.00384
 705  H 7   pz       0.00197
 706  H 7   px       0.00026
 707  H 7   py      -0.04382
 708  H 7   pz      -0.00512
 709  H 7   px       0.02168
 710  H 7   py      -0.12745
 711  H 7   pz       0.01010
 712  H 7   d 1     -0.00030
 713  H 7   d 2     -0.00012
 714  H 7   d 3     -0.00058
 715  H 7   d 4     -0.00042
 716  H 7   d 5     -0.00084
 717  H 7   d 1      0.00126
 718  H 7   d 2      0.00122
 719  H 7   d 3      0.00376
 720  H 7   d 4      0.00153
 721  H 7   d 5      0.00680
 722  H 7   d 1      0.00935
 723  H 7   d 2     -0.00211
 724  H 7   d 3      0.01430
 725  H 7   d 4     -0.00729
 726  H 7   d 5      0.03095
 727  H 7   f 1      0.00003
 728  H 7   f 2      0.00022
 729  H 7   f 3      0.00010
 730  H 7   f 4      0.00000
 731  H 7   f 5      0.00002
 732  H 7   f 6      0.00005
 733  H 7   f 7      0.00005
 734  H 7   f 1      0.00597
 735  H 7   f 2     -0.00117
 736  H 7   f 3      0.00443
 737  H 7   f 4      0.00040
 738  H 7   f 5     -0.00090
 739  H 7   f 6     -0.00003
 740  H 7   f 7     -0.00423
 741  H 7   g 1     -0.00038
 742  H 7   g 2     -0.00000
 743  H 7   g 3     -0.00014
 744  H 7   g 4      0.00007
 745  H 7   g 5     -0.00020
 746  H 7   g 6     -0.00002
 747  H 7   g 7     -0.00030
 748  H 7   g 8      0.00002
 749  H 7   g 9     -0.00030
 750  H 8   s        0.00065
 751  H 8   s        0.00607
 752  H 8   s        0.05379
 753  H 8   s       -0.40036
 754  H 8   s        0.80415
 755  H 8   px       0.00150
 756  H 8   py       0.00133
 757  H 8   pz      -0.00072
 758  H 8   px      -0.00443
 759  H 8   py      -0.00435
 760  H 8   pz       0.00275
 761  H 8   px       0.03115
 762  H 8   py       0.01916
 763  H 8   pz      -0.01651
 764  H 8   px       0.05659
 765  H 8   py       0.10872
 766  H 8   pz      -0.05616
 767  H 8   d 1     -0.00009
 768  H 8   d 2      0.00015
 769  H 8   d 3     -0.00027
 770  H 8   d 4     -0.00051
 771  H 8   d 5      0.00023
 772  H 8   d 1      0.00037
 773  H 8   d 2     -0.00122
 774  H 8   d 3      0.00095
 775  H 8   d 4      0.00275
 776  H 8   d 5     -0.00289
 777  H 8   d 1     -0.02572
 778  H 8   d 2      0.02296
 779  H 8   d 3      0.00751
 780  H 8   d 4      0.01571
 781  H 8   d 5      0.00505
 782  H 8   f 1      0.00028
 783  H 8   f 2      0.00019
 784  H 8   f 3      0.00008
 785  H 8   f 4     -0.00039
 786  H 8   f 5      0.00007
 787  H 8   f 6     -0.00019
 788  H 8   f 7      0.00028
 789  H 8   f 1      0.00168
 790  H 8   f 2     -0.00504
 791  H 8   f 3     -0.00032
 792  H 8   f 4      0.00465
 793  H 8   f 5     -0.00021
 794  H 8   f 6      0.00002
 795  H 8   f 7     -0.00236
 796  H 8   g 1     -0.00008
 797  H 8   g 2      0.00024
 798  H 8   g 3     -0.00009
 799  H 8   g 4     -0.00019
 800  H 8   g 5      0.00008
 801  H 8   g 6     -0.00015
 802  H 8   g 7      0.00001
 803  H 8   g 8     -0.00023
 804  H 8   g 9      0.00020

 -----------------------------------------------------------------
                    Cartesian Multipole Moments
 -----------------------------------------------------------------
    Charge (ESU x 10^10)
                 0.0000
    Dipole Moment (Debye)
         X       5.4197      Y       3.8904      Z      -1.2659
       Tot       6.7905
    Quadrupole Moments (Debye-Ang)
        XX     -23.4170     XY       2.1101     YY     -27.9015
        XZ      -1.7168     YZ       5.0823     ZZ     -26.0988
    Octopole Moments (Debye-Ang^2)
       XXX      28.3863    XXY      15.7705    XYY      38.7231
       YYY      36.0845    XXZ      11.2558    XYZ       2.0779
       YYZ     -10.1700    XZZ       5.1283    YZZ       9.9547
       ZZZ      -3.7633
    Hexadecapole Moments (Debye-Ang^3)
      XXXX    -167.1410   XXXY     -31.6505   XXYY    -155.1316
      XYYY     -87.7336   YYYY    -630.6636   XXXZ     -56.9996
      XXYZ      32.9475   XYYZ      -8.7787   YYYZ      80.7521
      XXZZ     -68.7978   XYZZ      -9.9364   YYZZ    -116.9912
      XZZZ     -64.6269   YZZZ      32.4693   ZZZZ    -173.6485
 -----------------------------------------------------------------
 Total job time:  5089.27s(wall), 38147.63s(cpu) 
 Thu Dec 19 14:17:13 2024

        *************************************************************
        *                                                           *
        *  Thank you very much for using Q-Chem.  Have a nice day.  *
        *                                                           *
        *************************************************************


