                  Welcome to Q-Chem
     A Quantum Leap Into The Future Of Chemistry


 Q-Chem 6.2 (devel), Q-Chem, Inc., Pleasanton, CA (2024)

 E. Epifanovsky,  A. T. B. Gilbert,  Xintian Feng,  Joonho Lee,  Yuezhi Mao,  
 N. Mardirossian,  P. Pokhilko,  A. White,  M. Wormit,  M. P. Coons,  
 A. L. Dempwolff,  Zhengting Gan,  D. Hait,  P. R. Horn,  L. D. Jacobson,  
 I. Kaliman,  J. Kussmann,  A. W. Lange,  Ka Un Lao,  D. S. Levine,  Jie Liu,  
 S. C. McKenzie,  A. F. Morrison,  K. D. Nanda,  F. Plasser,  D. R. Rehn,  
 M. L. Vidal,  Zhi-Qiang You,  Ying Zhu,  Huseyin Aksu,  B. Alam,  
 B. Albrecht,  A. Aldossary,  E. Alguire,  J. H. Andersen,  
 J. E. Arias-Martinez,  V. Athavale,  D. Barton,  K. Begam,  A. Behn,  
 N. Bellonzi,  Y. A. Bernard,  E. J. Berquist,  H. Burton,  A. Carreras,  
 K. Carter-Fenk,  Mathew Chow,  Romit Chakraborty,  Chandrima Chakravarty,  
 Junhan Chen,  A. D. Chien,  K. D. Closser,  V. Cofer-Shabica,  L. Cunha,  
 S. Dasgupta,  Jia Deng,  Joseph Dickinson,  M. de Wergifosse,  
 M. Diedenhofen,  Hainam Do,  Wenjie Dou,  S. Ehlert,  Po-Tung Fang,  
 S. Fatehi,  Qingguo Feng,  Jonathan Fetherolf,  T. Friedhoff,  
 Thomas Froitzheim,  Sarai Folkestad,  B. Ganoe,  J. Gayvert,  Qinghui Ge,  
 G. Gidofalvi,  M. Gimferrer,  M. Goldey,  Montgomery Gray,  J. Gomes,  
 C. Gonzalez-Espinoza,  S. Gulania,  A. Gunina,  J. A. Gyamfi,  
 M. W. D. Hanson-Heine,  P. H. P. Harbach,  A. W. Hauser,  M. F. Herbst,  
 M. Hernandez Vera,  M. Hodecker,  Z. C. Holden,  S. Houck,  Xunkun Huang,  
 Kerwin Hui,  B. C. Huynh,  K. Ikeda,  M. Ivanov,  Nayanthara K. Jayadev,  
 Hyunjun Ji,  Zuxin Jin,  Hanjie Jiang,  Subrata Jana,  B. Kaduk,  
 S. Kaehler,  R. Kang,  K. Khistyaev,  Jaehoon Kim,  Yongbin Kim,  
 P. Klunzinger,  Z. Koczor-Benda,  Joong Hoon Koh,  D. Kosenkov,  
 Saikiran Kotaru,  L. Koulias,  T. Kowalczyk,  C. M. Krauter,  K. Kue,  
 A. Kunitsa,  T. Kus,  A. Landau,  K. V. Lawler,  D. Lefrancois,  S. Lehtola,  
 Rain Li,  Shaozhi Li,  Tao E. Li,  Yi-Pei Li,  Jiashu Liang,  M. Liebenthal,  
 Hung-Hsuan Lin,  You-Sheng Lin,  Fenglai Liu,  Kuan-Yu Liu,  Xiao Liu,  
 M. Loipersberger,  A. Luenser,  C. Malbon,  Aniket Mandal,  Manisha,  
 A. Manjanath,  P. Manohar,  E. Mansoor,  S. F. Manzer,  Shan-Ping Mao,  
 A. V. Marenich,  T. Markovich,  S. Mason,  F. Matz,  S. A. Maurer,  
 Samuel May,  Alexandra McIsaac,  P. F. McLaughlin,  M. F. S. J. Menger,  
 J.-M. Mewes,  S. A. Mewes,  P. Morgante,  Mohammad Mostafanejad,  
 Madhubani Mukherjee,  J. W. Mullinax,  Quyen Nguyen,  Avik Kumar Ojha,  
 K. J. Oosterbaan,  Eno Paenurk,  Xiaoliang Pan,  G. Paran,  V. Parravicini,  
 Alexander C. Paul,  Suranjan K. Paul,  F. Pavosevic,  Zheng Pei,  S. Prager,  
 E. I. Proynov,  E. Ramos,  B. Rana,  A. E. Rask,  A. Rettig,  R. M. Richard,  
 F. Rob,  E. Rossomme,  T. Scheele,  M. Scheurer,  M. Schneider,  
 P. E. Schneider,  Tim K. Schramm,  N. Sergueev,  S. M. Sharada,  
 Hengyuan Shen,  W. Skomorowski,  D. W. Small,  C. J. Stein,  
 Alistair J. Sterling,  Yingli Su,  Yu-Chuan Su,  E. J. Sundstrom,  
 J. Talbot,  Zhen Tao,  J. Thirman,  Hung-Yi Tsai,  T. Tsuchimochi,  
 N. M. Tubman,  C. Utku,  S. P. Veccham,  O. Vydrov,  Rahel Weiss,  
 J. Wenzel,  Jonathan Wong,  J. Witte,  H. Wu,  Yanze Wu,  A. Yamada,  
 Chou-Hsun Yang,  Kun Yao,  S. Yeganeh,  S. R. Yost,  Qi Yu,  A. Zech,  
 F. Zeller,  Chongxiao Zhao,  Igor Ying Zhang,  Xing Zhang,  Yu Zhang,  
 D. Zuev,  A. Aspuru-Guzik,  A. T. Bell,  N. A. Besley,  K. B. Bravaya,  
 B. R. Brooks,  D. Casanova,  Jeng-Da Chai,  Hsing-Ta Chen,  S. Coriani,  
 C. J. Cramer,  A. E. DePrince, III,  R. A. DiStasio Jr.,  A. Dreuw,  
 B. D. Dunietz,  T. R. Furlani,  W. A. Goddard III,  S. Grimme,  
 S. Hammes-Schiffer,  T. Head-Gordon,  W. J. Hehre,  Chao-Ping Hsu,  
 T.-C. Jagau,  Yousung Jung,  A. Klamt,  Jing Kong,  D. S. Lambrecht,  
 Xiangyuan Li,  WanZhen Liang,  N. J. Mayhall,  C. W. McCurdy,  J. B. Neaton,  
 T. Neudecker,  C. Ochsenfeld,  J. A. Parkhill,  R. Peverati,  
 V. A. Rassolov,  Haisheng Ren,  Yihan Shao,  L. V. Slipchenko,  
 R. P. Steele,  J. E. Subotnik,  A. J. W. Thom,  A. Tkatchenko,  
 D. G. Truhlar,  T. Van Voorhis,  Fan Wang,  T. A. Wesolowski,  K. B. Whaley,  
 H. L. Woodcock III,  P. M. Zimmerman,  S. Faraji,  P. M. W. Gill,  
 M. Head-Gordon,  J. M. Herbert,  A. I. Krylov

 Contributors to earlier versions of Q-Chem not listed above: 
 R. D. Adamson,  B. Austin,  R. Baer,  J. Baker,  G. J. O. Beran,  
 K. Brandhorst,  S. T. Brown,  E. F. C. Byrd,  Arup K. Chakraborty,  
 G. K. L. Chan,  Chun-Min Chang,  Yunqing Chen,  C.-L. Cheng,  
 Siu Hung Chien,  D. M. Chipman,  D. L. Crittenden,  H. Dachsel,  
 R. J. Doerksen,  A. D. Dutoi,  R. G. Edgar,  J. Fosso-Tande,  
 L. Fusti-Molnar,  D. Ghosh,  A. Ghysels,  A. Golubeva-Zadorozhnaya,  
 J. Gonthier,  M. S. Gordon,  S. R. Gwaltney,  G. Hawkins,  J. E. Herr,  
 A. Heyden,  S. Hirata,  E. G. Hohenstein,  G. Kedziora,  F. J. Keil,  
 C. Kelley,  Jihan Kim,  R. A. King,  R. Z. Khaliullin,  P. P. Korambath,  
 W. Kurlancheek,  A. Laurent,  A. M. Lee,  M. S. Lee,  S. V. Levchenko,  
 Ching Yeh Lin,  D. Liotard,  E. Livshits,  R. C. Lochan,  I. Lotan,  
 L. A. Martinez-Martinez,  P. E. Maslen,  N. Nair,  D. P. O'Neill,  
 D. Neuhauser,  E. Neuscamman,  C. M. Oana,  R. Olivares-Amaya,  R. Olson,  
 T. M. Perrine,  B. Peters,  P. A. Pieniazek,  A. Prociuk,  Y. M. Rhee,  
 J. Ritchie,  M. A. Rohrdanz,  E. Rosta,  N. J. Russ,  H. F. Schaefer III,  
 M. W. Schmidt,  N. E. Schultz,  S. Sharma,  N. Shenvi,  C. D. Sherrill,  
 A. C. Simmonett,  A. Sodt,  T. Stein,  D. Stuck,  K. S. Thanthiriwatte,  
 V. Vanovschi,  L. Vogt,  Tao Wang,  A. Warshel,  M. A. Watson,  
 C. F. Williams,  Q. Wu,  X. Xu,  Jun Yang,  W. Zhang,  Yan Zhao

   Please cite Q-Chem as follows:
  "Software for the frontiers of quantum chemistry:
   An overview of developments in the Q-Chem 5 package"
   J. Chem. Phys. 155, 084801 (2021)
   https://doi.org/10.1063/5.0055522 (open access)

 Q-Chem 6.2.2 for Intel X86 EM64T Linux

 Parts of Q-Chem use Armadillo 9.900.5 (Nocturnal Misbehaviour).
 http://arma.sourceforge.net/

 Q-Chem begins on Tue Dec 17 21:33:42 2024  

 Host: compute-0-15.local
0

     Scratch files written to /scratch/keith/A1D1_1//
 Processing $rem in /home/keith/software/qchem/qchem_622/config/preferences:
 Processing $rem in /home/keith/.qchemrc:

 Checking the input file for inconsistencies... 	...done.

--------------------------------------------------------------
User input:
--------------------------------------------------------------
$molecule
0 1
O 0.08630 -0.64999 0.87854
H 0.71740 0.00811 0.75554
H -0.68750 -0.09319 0.81254
O 1.63690 1.77401 0.72554
H 1.99410 2.52971 1.16654
H 2.39814 1.36611 0.31254
O -0.81910 -3.08271 -0.06246
H -0.30970 -2.22523 0.02254
H -0.18620 -3.58058 -0.58946
O -1.07970 1.86331 -1.48046
H -0.66610 0.99221 -1.57046
H -0.47320 2.51711 -1.88046
$end

$rem
method                    b3lyp 
basis                     cc-pv5z 
mem_total                 48000
mem_static                8000
thresh                    12
scf_convergence           8
xc_grid                   000075000302
max_scf_cycles            2000
symmetry                  false
sym_ignore                true
print_orbitals true
$end
gui                       2
molden_format true
--------------------------------------------------------------
 ----------------------------------------------------------------
             Standard Nuclear Orientation (Angstroms)
    I     Atom           X                Y                Z
 ----------------------------------------------------------------
    1      O       0.0863000000    -0.6499900000     0.8785400000
    2      H       0.7174000000     0.0081100000     0.7555400000
    3      H      -0.6875000000    -0.0931900000     0.8125400000
    4      O       1.6369000000     1.7740100000     0.7255400000
    5      H       1.9941000000     2.5297100000     1.1665400000
    6      H       2.3981400000     1.3661100000     0.3125400000
    7      O      -0.8191000000    -3.0827100000    -0.0624600000
    8      H      -0.3097000000    -2.2252300000     0.0225400000
    9      H      -0.1862000000    -3.5805800000    -0.5894600000
   10      O      -1.0797000000     1.8633100000    -1.4804600000
   11      H      -0.6661000000     0.9922100000    -1.5704600000
   12      H      -0.4732000000     2.5171100000    -1.8804600000
 ----------------------------------------------------------------
 Nuclear Repulsion Energy =         124.21102100 hartrees
 There are       20 alpha and       20 beta electrons
 Requested basis set is cc-pV5Z
 There are 204 shells and 804 basis functions

 Total QAlloc Memory Limit  48000 MB
 Mega-Array Size      7821 MB
 MEM_STATIC part      8000 MB


                       Distance Matrix (Angstroms)
             O (  1)   H (  2)   H (  3)   O (  4)   H (  5)   H (  6)
   H (  2)  0.920061
   H (  3)  0.955588  1.409700
   O (  4)  2.881587  1.991176  2.982757
   H (  5)  3.719293  2.856108  3.767745  0.945069
   H (  6)  3.119234  2.205742  3.449744  0.957308  1.498843
   O (  7)  2.761043  3.547270  3.117719  5.499146  6.397171  5.503023
   H (  8)  1.836010  2.565157  2.304870  4.503041  5.406079  4.507130
   H (  9)  3.289018  3.937539  3.791938  5.807284  6.721078  5.653509
   O ( 10)  3.638834  3.416289  3.039665  3.500618  4.110833  3.944291
   H ( 11)  3.043111  2.879722  2.618633  3.344643  4.114819  3.615945
   H ( 12)  4.237410  3.828982  3.756573  3.434524  3.920706  3.791918
             O (  7)   H (  8)   H (  9)   O ( 10)   H ( 11)
   H (  8)  1.000992
   H (  9)  0.962375  1.492237
   O ( 10)  5.151869  4.423581  5.588216
   H ( 11)  4.347694  3.607851  4.701391  0.968494
   H ( 12)  5.897691  5.112527  6.239461  0.977393  1.568002

 A cutoff of  1.0D-12 yielded  14557 shell pairs
 There are    200687 function pairs (    337044 Cartesian)
 Smallest overlap matrix eigenvalue = 2.84E-05

 Scale SEOQF with 1.000000e-01/1.000000e-01/1.000000e-01

 Standard Electronic Orientation quadrupole field applied
 Nucleus-field energy     =     0.0000000096 hartrees
 Guess from superposition of atomic densities
 Warning:  Energy on first SCF cycle will be non-variational
 SAD guess density has 40.000000 electrons

 -----------------------------------------------------------------------
  General SCF calculation program by
  Eric Jon Sundstrom, Paul Horn, Yuezhi Mao, Dmitri Zuev, Alec White,
  David Stuck, Shaama M.S., Shane Yost, Joonho Lee, David Small,
  Daniel Levine, Susi Lehtola, Hugh Burton, Evgeny Epifanovsky,
  Bang C. Huynh
 -----------------------------------------------------------------------
 Exchange:     0.2000 Hartree-Fock + 0.0800 Slater + 0.7200 B88
 Correlation:  0.1900 VWN1RPA + 0.8100 LYP
 Using Euler-Maclaurin-Lebedev (75,302) quadrature formula
 A restricted SCF calculation will be
 performed using DIIS
 SCF converges when DIIS error is below 1.0e-08
 ---------------------------------------
  Cycle       Energy         DIIS error
 ---------------------------------------
    1    -305.7745743231      8.33e-03  
    2    -305.6291840522      2.17e-03  
    3    -305.3191050050      3.22e-03  
    4    -305.8973922838      1.14e-04  
    5    -305.8975187063      1.06e-04  
    6    -305.8980912404      1.06e-05  
    7    -305.8980964616      2.13e-06  
    8    -305.8980965676      1.69e-06  
    9    -305.8980967175      8.74e-08  
   10    -305.8980967179      2.06e-08  
   11    -305.8980967179      3.77e-09  Convergence criterion met
 ---------------------------------------
 SCF time:   CPU 28589.43s  wall 904.00s 
 SCF   energy =  -305.89809672
 Total energy =  -305.89809672

 --------------------------------------------------------------

                    Orbital Energies (a.u.)
 --------------------------------------------------------------

 Alpha MOs
 -- Occupied --
-19.1691 -19.1362 -19.1348 -19.0948  -1.0633  -1.0403  -1.0146  -0.9745
 -0.5820  -0.5421  -0.5385  -0.4904  -0.4480  -0.4125  -0.3950  -0.3685
 -0.3627  -0.3312  -0.3225  -0.2842
 -- Virtual --
 -0.0369   0.0007   0.0213   0.0385   0.0514   0.0714   0.1066   0.1478
  0.1808   0.1870   0.2010   0.2101   0.2168   0.2303   0.2397   0.2495
  0.2526   0.2726   0.2746   0.2812   0.2948   0.3046   0.3171   0.3215
  0.3437   0.3444   0.3613   0.3786   0.3806   0.3986   0.4048   0.4254
  0.4391   0.4671   0.4837   0.4974   0.5150   0.5554   0.5766   0.5983
  0.6065   0.6132   0.6344   0.6442   0.6583   0.6794   0.6878   0.7093
  0.7244   0.7437   0.7484   0.7750   0.7843   0.7905   0.7961   0.8136
  0.8235   0.8353   0.8544   0.8605   0.8969   0.9225   0.9624   0.9861
  0.9966   1.0137   1.0179   1.0354   1.0474   1.0615   1.0651   1.0699
  1.1009   1.1129   1.1218   1.1415   1.1503   1.1710   1.1868   1.1984
  1.2050   1.2168   1.2532   1.2813   1.3084   1.3226   1.3448   1.3614
  1.3725   1.4129   1.4339   1.4457   1.4758   1.4858   1.4900   1.5074
  1.5441   1.5487   1.5642   1.5686   1.5888   1.6081   1.6179   1.6321
  1.6692   1.6726   1.6777   1.6977   1.7040   1.7195   1.7234   1.7376
  1.7428   1.7491   1.7544   1.7763   1.7843   1.8011   1.8112   1.8157
  1.8406   1.8610   1.8787   1.8930   1.9085   1.9154   1.9232   1.9288
  1.9518   1.9644   1.9804   2.0003   2.0091   2.0355   2.0362   2.0521
  2.0698   2.0874   2.1049   2.1260   2.1639   2.1682   2.2109   2.2393
  2.2565   2.2711   2.2796   2.2894   2.3235   2.3282   2.3418   2.3851
  2.3972   2.4232   2.4388   2.4559   2.4702   2.4819   2.5239   2.5401
  2.5852   2.6059   2.6189   2.6462   2.6526   2.6706   2.6861   2.6936
  2.7076   2.7257   2.7555   2.7663   2.7839   2.7957   2.8136   2.8357
  2.8527   2.8751   2.8962   2.9041   2.9324   2.9359   2.9600   2.9983
  3.0061   3.0314   3.0483   3.0745   3.0991   3.1153   3.1798   3.2013
  3.2077   3.2531   3.2812   3.3105   3.3333   3.3514   3.3681   3.3718
  3.3845   3.4163   3.4244   3.4470   3.4673   3.4805   3.4919   3.5091
  3.5326   3.5617   3.5739   3.5956   3.6076   3.6187   3.6688   3.7090
  3.7403   3.7520   3.7706   3.7914   3.8003   3.8176   3.8229   3.8390
  3.8751   3.8912   3.9039   3.9075   3.9597   3.9961   4.0075   4.0168
  4.0414   4.0637   4.0951   4.1010   4.1401   4.1998   4.2445   4.2619
  4.2640   4.3221   4.3455   4.3735   4.3971   4.4094   4.4181   4.4282
  4.4435   4.4517   4.4794   4.5044   4.5052   4.5151   4.5298   4.5394
  4.5477   4.5660   4.5715   4.5832   4.5918   4.6175   4.6280   4.6385
  4.6502   4.6602   4.6730   4.6918   4.7096   4.7208   4.7360   4.7496
  4.7605   4.7692   4.7941   4.8095   4.8334   4.8523   4.8685   4.8922
  4.8997   4.9081   4.9318   4.9323   4.9623   4.9776   4.9988   5.0069
  5.0445   5.0690   5.0728   5.0921   5.1618   5.1709   5.1792   5.2115
  5.2317   5.2748   5.2911   5.3269   5.3439   5.3698   5.3810   5.4025
  5.4621   5.4684   5.4844   5.5254   5.5667   5.5910   5.5966   5.6216
  5.6551   5.6798   5.6946   5.7797   5.7927   5.8798   5.9005   5.9243
  5.9509   5.9946   6.0515   6.0709   6.0925   6.1071   6.1724   6.1834
  6.2263   6.2573   6.2760   6.2794   6.3093   6.3154   6.3349   6.3693
  6.4077   6.4410   6.4895   6.5324   6.5573   6.6047   6.6126   6.6375
  6.6840   6.6945   6.7146   6.7286   6.7384   6.7407   6.7517   6.7540
  6.7803   6.7868   6.8185   6.8304   6.8600   6.8721   6.8880   6.9059
  6.9244   6.9680   6.9854   6.9896   7.0039   7.0610   7.0747   7.0846
  7.1132   7.1395   7.1509   7.1811   7.2265   7.2549   7.2839   7.2909
  7.3263   7.3504   7.3573   7.3846   7.4052   7.4576   7.4717   7.4835
  7.5064   7.5387   7.5762   7.6113   7.6146   7.7125   7.7297   7.7374
  7.7867   7.7891   7.8024   7.8090   7.8465   7.9063   7.9740   8.0005
  8.0563   8.0931   8.1604   8.2106   8.2621   8.2878   8.3988   8.4273
  8.5161   8.6078   8.7336   8.7919   8.9646   8.9824   9.0127   9.0255
  9.0437   9.0726   9.1242   9.1321   9.2229   9.2882   9.3580   9.4267
  9.6438   9.6588   9.6865   9.7073   9.7293   9.7541   9.7644   9.8000
  9.8800   9.9888  10.0771  10.1414  11.6808  11.6923  11.7328  11.7505
 11.7618  11.7678  11.7886  11.7968  11.8091  11.8214  11.8699  11.8822
 11.8976  11.9097  11.9286  11.9571  11.9767  11.9951  12.0093  12.0577
 12.0794  12.0922  12.1070  12.1262  12.1352  12.1506  12.1532  12.1580
 12.1613  12.1738  12.1781  12.1910  12.1993  12.2015  12.2100  12.2195
 12.2315  12.2715  12.2926  12.3010  12.3100  12.3117  12.3314  12.3360
 12.3378  12.3491  12.3815  12.3859  12.3894  12.4040  12.4190  12.4651
 12.4947  12.5088  12.5182  12.5454  12.5599  12.6047  12.6272  12.6780
 12.6839  12.6883  12.6946  12.7052  12.7196  12.7278  12.7483  12.7619
 12.7715  12.7852  12.8390  12.8421  12.8504  12.8945  12.9131  12.9192
 12.9329  12.9649  13.0210  13.0532  13.0797  13.1319  13.1613  13.1660
 13.2138  13.2258  13.2649  13.2788  13.3083  13.3152  13.3314  13.3401
 13.3514  13.3685  13.3883  13.4013  13.4030  13.4214  13.4286  13.4497
 13.4512  13.4569  13.4612  13.4901  13.4981  13.5104  13.5233  13.5307
 13.5376  13.5425  13.5586  13.5639  13.5760  13.5976  13.6247  13.6386
 13.6541  13.6783  13.6992  13.7282  13.7482  13.7526  13.7763  13.8084
 13.8283  13.8522  13.8747  13.8805  13.8943  13.9138  13.9569  13.9836
 13.9934  14.0786  14.0812  14.1068  14.1288  14.1399  14.1727  14.1810
 14.2221  14.2401  14.2773  14.3439  14.3523  14.4020  14.4585  14.4830
 14.5842  14.7055  14.7374  14.7774  14.8183  14.9877  15.0210  15.1273
 15.1602  15.1789  15.2961  15.3718  15.3827  15.4348  15.5580  15.6419
 15.6831  15.7100  15.7234  15.7307  15.7555  15.7829  15.8112  15.8299
 15.8414  15.8531  15.9074  15.9303  15.9524  15.9929  16.0049  16.0249
 16.0424  16.0690  16.0832  16.0996  16.1168  16.1192  16.1326  16.1621
 16.1791  16.1871  16.2025  16.2175  16.2412  16.2555  16.2638  16.2726
 16.3090  16.3361  16.3568  16.3754  16.4863  16.5355  16.5380  16.5697
 16.6796  16.7644  16.7921  16.8650  16.9908  17.0384  17.0819  17.0989
 17.1545  17.1682  17.1859  17.2021  17.2436  17.2680  17.3052  17.3129
 17.3255  17.3556  17.4061  17.4996  17.5076  17.5157  17.5314  17.5568
 17.5910  17.6608  17.7175  17.7736  17.8134  17.8293  17.8869  17.9563
 17.9722  18.0622  18.1054  18.1564  18.1819  18.1961  18.2173  18.2394
 18.3023  18.3160  18.3302  18.3384  18.4036  18.4104  18.4507  18.4794
 18.4983  18.5173  18.5688  18.6063  18.6438  18.6623  18.7094  18.7285
 18.8050  18.8117  18.8594  18.8893  18.9329  18.9720  19.0281  19.1032
 19.1897  19.2343  19.2722  19.3015  19.3324  19.3435  19.3464  19.3518
 19.3809  19.4223  19.4604  19.4893  19.5489  19.5513  19.6354  19.6594
 19.6745  19.7705  19.8320  19.8543  19.9268  19.9558  20.0700  20.2649
 20.5960  20.6225  20.7387  20.7696  20.7970  20.9260  21.0032  21.1698
 21.8386  21.8718  21.8813  21.9107  21.9340  21.9415  21.9786  22.1291
 22.2578  22.2694  22.2941  22.3530  22.5374  22.7768  22.8050  22.8656
 23.0103  23.0786  23.1170  23.1269  23.2210  23.2477  23.3356  23.4207
 23.4427  23.5296  24.0047  24.1600  24.2192  24.3732  24.4156  24.4706
 24.5046  24.5504  24.9359  24.9495  25.1016  25.1854  25.2261  25.5514
 25.7800  25.8021  26.2246  26.8424  63.9344  64.0506  64.1964  64.7239
 --------------------------------------------------------------


                        RESTRICTED (RHF) MOLECULAR ORBITAL COEFFICIENTS
                         1         2         3         4         5         6
 eigenvalues:        -19.169   -19.136   -19.135   -19.095    -1.063    -1.040
   1  O 1   s        0.00004  -0.00015  -0.97865   0.00005  -0.00349   0.01862
   2  O 1   s        0.00002  -0.00002  -0.03120   0.00004   0.05146  -0.27779
   3  O 1   s        0.00005  -0.00003  -0.08551   0.00007   0.00145  -0.00740
   4  O 1   s       -0.00013  -0.00002   0.01642  -0.00045   0.05826  -0.31740
   5  O 1   s       -0.00102   0.00038   0.01970   0.00197   0.07940  -0.43208
   6  O 1   s       -0.00074   0.00089   0.00469   0.00297   0.03450  -0.16635
   7  O 1   px      -0.00000   0.00000   0.00013   0.00000   0.00038   0.00100
   8  O 1   py       0.00000  -0.00000  -0.00113   0.00001   0.00520  -0.02561
   9  O 1   pz      -0.00000  -0.00000   0.00027  -0.00000  -0.00099   0.00515
  10  O 1   px       0.00003  -0.00001  -0.00006  -0.00002   0.00063   0.00163
  11  O 1   py      -0.00002  -0.00001  -0.00088  -0.00006   0.00830  -0.04134
  12  O 1   pz      -0.00000   0.00002   0.00011  -0.00000  -0.00168   0.00841
  13  O 1   px      -0.00053   0.00014   0.00079   0.00012   0.00046   0.00303
  14  O 1   py      -0.00021   0.00008   0.01149   0.00026   0.01425  -0.07082
  15  O 1   pz       0.00008  -0.00007  -0.00182   0.00001  -0.00238   0.01386
  16  O 1   px      -0.00043   0.00047   0.00063   0.00138   0.00184   0.00409
  17  O 1   py      -0.00018   0.00039   0.00206   0.00251   0.01047  -0.04538
  18  O 1   pz       0.00047  -0.00008  -0.00055   0.00025  -0.00251   0.01284
  19  O 1   px      -0.00011  -0.00004   0.00003   0.00036   0.00099   0.00009
  20  O 1   py      -0.00008   0.00014   0.00034   0.00041   0.00210  -0.00608
  21  O 1   pz       0.00005  -0.00008  -0.00015  -0.00010  -0.00064   0.00210
  22  O 1   d 1      0.00000   0.00000  -0.00003   0.00000   0.00003  -0.00005
  23  O 1   d 2      0.00000   0.00000   0.00005   0.00001  -0.00003   0.00011
  24  O 1   d 3     -0.00000  -0.00000   0.00026  -0.00000  -0.00007   0.00034
  25  O 1   d 4      0.00000  -0.00000   0.00002   0.00000  -0.00001   0.00002
  26  O 1   d 5     -0.00000  -0.00000  -0.00006  -0.00000  -0.00003   0.00009
  27  O 1   d 1     -0.00002  -0.00001   0.00007  -0.00003   0.00007  -0.00026
  28  O 1   d 2     -0.00000   0.00000  -0.00010  -0.00002  -0.00012   0.00066
  29  O 1   d 3      0.00001   0.00000  -0.00048   0.00002  -0.00044   0.00230
  30  O 1   d 4     -0.00000   0.00000  -0.00004  -0.00001  -0.00005   0.00013
  31  O 1   d 5      0.00001   0.00000   0.00008   0.00002   0.00004  -0.00015
  32  O 1   d 1     -0.00018   0.00012   0.00077   0.00026   0.00050  -0.00054
  33  O 1   d 2      0.00006  -0.00004  -0.00080   0.00004  -0.00055   0.00314
  34  O 1   d 3      0.00005  -0.00004  -0.00297  -0.00018  -0.00220   0.01093
  35  O 1   d 4      0.00009   0.00001  -0.00028   0.00004  -0.00001   0.00085
  36  O 1   d 5     -0.00014  -0.00000   0.00070  -0.00011  -0.00033  -0.00027
  37  O 1   d 1      0.00003   0.00018   0.00006   0.00059   0.00118   0.00006
  38  O 1   d 2      0.00023  -0.00005   0.00022  -0.00035  -0.00021   0.00086
  39  O 1   d 3     -0.00005  -0.00013   0.00052  -0.00053  -0.00152   0.00621
  40  O 1   d 4      0.00023   0.00004   0.00002  -0.00011  -0.00007   0.00016
  41  O 1   d 5     -0.00012  -0.00003   0.00029  -0.00025  -0.00043   0.00076
  42  O 1   f 1      0.00000  -0.00000  -0.00015  -0.00000   0.00002  -0.00008
  43  O 1   f 2      0.00000  -0.00000   0.00002   0.00000  -0.00001   0.00002
  44  O 1   f 3      0.00000  -0.00000   0.00009  -0.00000   0.00000   0.00003
  45  O 1   f 4     -0.00000  -0.00000  -0.00004  -0.00000   0.00001  -0.00001
  46  O 1   f 5     -0.00000   0.00000  -0.00001   0.00000  -0.00000   0.00002
  47  O 1   f 6     -0.00000   0.00000  -0.00000   0.00000  -0.00000  -0.00001
  48  O 1   f 7      0.00000   0.00000   0.00005   0.00000  -0.00000   0.00003
  49  O 1   f 1     -0.00003   0.00001   0.00120   0.00001   0.00038  -0.00221
  50  O 1   f 2      0.00001   0.00001  -0.00015  -0.00001  -0.00001   0.00028
  51  O 1   f 3     -0.00000   0.00000  -0.00074  -0.00000  -0.00038   0.00170
  52  O 1   f 4      0.00000   0.00001   0.00030   0.00000   0.00010  -0.00072
  53  O 1   f 5      0.00002  -0.00001   0.00003  -0.00001  -0.00000  -0.00017
  54  O 1   f 6      0.00001  -0.00000  -0.00001  -0.00000   0.00001   0.00003
  55  O 1   f 7     -0.00001  -0.00001  -0.00042  -0.00002  -0.00020   0.00069
  56  O 1   f 1     -0.00005  -0.00001  -0.00024   0.00001   0.00066  -0.00327
  57  O 1   f 2      0.00010   0.00001   0.00002   0.00008  -0.00015   0.00071
  58  O 1   f 3     -0.00006  -0.00003   0.00025  -0.00017  -0.00052   0.00237
  59  O 1   f 4     -0.00007   0.00005  -0.00013  -0.00006   0.00025  -0.00146
  60  O 1   f 5     -0.00004  -0.00001  -0.00006  -0.00006  -0.00006  -0.00025
  61  O 1   f 6     -0.00003  -0.00002  -0.00012   0.00008   0.00023  -0.00069
  62  O 1   f 7     -0.00008  -0.00004   0.00007  -0.00026  -0.00034   0.00029
  63  O 1   g 1      0.00000   0.00000  -0.00006   0.00000  -0.00002   0.00008
  64  O 1   g 2     -0.00000  -0.00000  -0.00004   0.00000  -0.00001   0.00004
  65  O 1   g 3      0.00000  -0.00000  -0.00000  -0.00000  -0.00001   0.00002
  66  O 1   g 4      0.00000  -0.00000   0.00004  -0.00001   0.00001  -0.00006
  67  O 1   g 5     -0.00000  -0.00000   0.00008   0.00000   0.00002  -0.00011
  68  O 1   g 6      0.00000   0.00000   0.00001  -0.00000   0.00000  -0.00002
  69  O 1   g 7     -0.00000  -0.00000  -0.00002   0.00001   0.00000   0.00000
  70  O 1   g 8      0.00000  -0.00000   0.00002   0.00000   0.00000  -0.00004
  71  O 1   g 9      0.00000  -0.00000  -0.00015  -0.00000  -0.00004   0.00023
  72  O 1   g 1     -0.00003   0.00000  -0.00005  -0.00003  -0.00011   0.00046
  73  O 1   g 2      0.00001  -0.00001  -0.00002   0.00000  -0.00002   0.00033
  74  O 1   g 3     -0.00002  -0.00000  -0.00002  -0.00002  -0.00001  -0.00010
  75  O 1   g 4     -0.00001   0.00001   0.00001   0.00002   0.00006  -0.00037
  76  O 1   g 5      0.00002   0.00000   0.00005   0.00002   0.00012  -0.00055
  77  O 1   g 6     -0.00001  -0.00001   0.00001   0.00000  -0.00001  -0.00007
  78  O 1   g 7      0.00001   0.00001  -0.00001  -0.00003  -0.00001   0.00004
  79  O 1   g 8     -0.00001   0.00000   0.00004  -0.00001   0.00004  -0.00010
  80  O 1   g 9     -0.00002   0.00000  -0.00015  -0.00001  -0.00027   0.00119
  81  O 1   h 1     -0.00001  -0.00000  -0.00005  -0.00000  -0.00004   0.00015
  82  O 1   h 2     -0.00000   0.00000   0.00001   0.00000   0.00001  -0.00003
  83  O 1   h 3     -0.00000   0.00000  -0.00007   0.00000  -0.00003   0.00012
  84  O 1   h 4     -0.00000  -0.00000   0.00002  -0.00000   0.00001  -0.00003
  85  O 1   h 5      0.00000  -0.00000   0.00004   0.00001   0.00002  -0.00011
  86  O 1   h 6     -0.00000  -0.00000  -0.00003   0.00000  -0.00002   0.00008
  87  O 1   h 7      0.00000   0.00000  -0.00000  -0.00000  -0.00000   0.00002
  88  O 1   h 8      0.00000   0.00000   0.00001  -0.00000  -0.00001   0.00001
  89  O 1   h 9      0.00000   0.00000   0.00002   0.00001   0.00001  -0.00002
  90  O 1   h10      0.00000   0.00000   0.00004   0.00000   0.00002  -0.00009
  91  O 1   h11      0.00000  -0.00000   0.00002  -0.00000   0.00001  -0.00008
  92  H 1   s       -0.00000   0.00000   0.00032   0.00001   0.00585  -0.02582
  93  H 1   s       -0.00021   0.00005   0.00100   0.00001   0.01227  -0.05691
  94  H 1   s        0.00124  -0.00093  -0.01377  -0.00304   0.01432  -0.06111
  95  H 1   s        0.00075  -0.00071  -0.00424  -0.00238  -0.00013  -0.01267
  96  H 1   s        0.00019   0.00014   0.00041  -0.00007   0.00032  -0.00146
  97  H 1   px      -0.00001  -0.00000  -0.00018   0.00000  -0.00028   0.00158
  98  H 1   py      -0.00001  -0.00000  -0.00018  -0.00001  -0.00023   0.00143
  99  H 1   pz      -0.00000   0.00000   0.00003  -0.00001   0.00005  -0.00025
 100  H 1   px       0.00007   0.00001   0.00052  -0.00001  -0.00073   0.00449
 101  H 1   py       0.00011   0.00001   0.00045   0.00007  -0.00054   0.00384
 102  H 1   pz       0.00000  -0.00001  -0.00009   0.00003   0.00013  -0.00065
 103  H 1   px      -0.00042   0.00025   0.00711   0.00093   0.00015   0.00523
 104  H 1   py      -0.00078   0.00020   0.00787   0.00040   0.00054   0.00371
 105  H 1   pz      -0.00016  -0.00001  -0.00148  -0.00039  -0.00016  -0.00108
 106  H 1   px      -0.00036   0.00026   0.00247   0.00095   0.00128   0.00070
 107  H 1   py      -0.00068   0.00027   0.00274   0.00062   0.00110   0.00170
 108  H 1   pz      -0.00033  -0.00009  -0.00042  -0.00027  -0.00053   0.00047
 109  H 1   d 1     -0.00002   0.00000   0.00007   0.00000   0.00012  -0.00071
 110  H 1   d 2      0.00001  -0.00000  -0.00002  -0.00001  -0.00004   0.00012
 111  H 1   d 3      0.00001  -0.00000  -0.00002   0.00000  -0.00007   0.00042
 112  H 1   d 4      0.00001   0.00000  -0.00002  -0.00001  -0.00003   0.00010
 113  H 1   d 5      0.00001  -0.00000  -0.00000   0.00001   0.00004  -0.00011
 114  H 1   d 1      0.00015  -0.00006  -0.00259  -0.00010   0.00034  -0.00059
 115  H 1   d 2     -0.00002   0.00001   0.00054   0.00005   0.00007   0.00021
 116  H 1   d 3     -0.00009   0.00004   0.00135   0.00005  -0.00027   0.00049
 117  H 1   d 4      0.00000  -0.00000   0.00051   0.00007   0.00003   0.00029
 118  H 1   d 5     -0.00011   0.00000   0.00011  -0.00005  -0.00024   0.00002
 119  H 1   d 1      0.00023  -0.00004  -0.00368  -0.00007   0.00053  -0.00018
 120  H 1   d 2      0.00006   0.00002   0.00061   0.00019  -0.00005   0.00032
 121  H 1   d 3     -0.00014   0.00002   0.00208   0.00001  -0.00050  -0.00014
 122  H 1   d 4      0.00013   0.00003   0.00064   0.00013  -0.00007   0.00042
 123  H 1   d 5     -0.00005  -0.00000   0.00037  -0.00027  -0.00038  -0.00072
 124  H 1   f 1      0.00000   0.00000   0.00017   0.00000  -0.00003   0.00013
 125  H 1   f 2      0.00000   0.00000  -0.00009  -0.00000   0.00001  -0.00007
 126  H 1   f 3      0.00000  -0.00000  -0.00014  -0.00000   0.00000  -0.00010
 127  H 1   f 4      0.00001   0.00000   0.00007  -0.00000  -0.00001   0.00006
 128  H 1   f 5     -0.00000  -0.00000  -0.00011  -0.00001   0.00002  -0.00013
 129  H 1   f 6      0.00000   0.00000   0.00001  -0.00001  -0.00001   0.00001
 130  H 1   f 7     -0.00000  -0.00000  -0.00022  -0.00000  -0.00000  -0.00010
 131  H 1   f 1      0.00001  -0.00000   0.00085   0.00005   0.00011   0.00006
 132  H 1   f 2     -0.00001  -0.00001  -0.00041  -0.00005  -0.00008  -0.00018
 133  H 1   f 3      0.00009  -0.00002  -0.00063   0.00002   0.00015  -0.00016
 134  H 1   f 4     -0.00001   0.00000   0.00031   0.00005   0.00005   0.00016
 135  H 1   f 5      0.00006  -0.00001  -0.00064   0.00001   0.00006  -0.00006
 136  H 1   f 6     -0.00004  -0.00000  -0.00000   0.00002   0.00006  -0.00004
 137  H 1   f 7      0.00016  -0.00002  -0.00091   0.00005   0.00018  -0.00023
 138  H 1   g 1     -0.00001   0.00000   0.00000  -0.00001  -0.00002   0.00000
 139  H 1   g 2      0.00000   0.00000   0.00002   0.00000  -0.00000   0.00003
 140  H 1   g 3     -0.00000   0.00000   0.00007  -0.00000  -0.00003   0.00008
 141  H 1   g 4      0.00000  -0.00000  -0.00004  -0.00000   0.00001  -0.00004
 142  H 1   g 5      0.00000  -0.00000  -0.00005   0.00000   0.00002  -0.00006
 143  H 1   g 6     -0.00000   0.00000  -0.00003  -0.00000   0.00001  -0.00004
 144  H 1   g 7      0.00000  -0.00000  -0.00001  -0.00000   0.00000   0.00001
 145  H 1   g 8      0.00001  -0.00000  -0.00003  -0.00000   0.00000  -0.00004
 146  H 1   g 9     -0.00000   0.00000   0.00011  -0.00000  -0.00003   0.00011
 147  H 2   s       -0.00000  -0.00000   0.00023   0.00000   0.00428  -0.02355
 148  H 2   s        0.00003   0.00002   0.00123  -0.00002   0.00948  -0.05262
 149  H 2   s       -0.00014   0.00002  -0.00974  -0.00029   0.01119  -0.05826
 150  H 2   s       -0.00003   0.00003  -0.00237   0.00006   0.00259  -0.01416
 151  H 2   s       -0.00005  -0.00006  -0.00031   0.00003   0.00076  -0.00158
 152  H 2   px       0.00000  -0.00000   0.00018  -0.00001   0.00030  -0.00161
 153  H 2   py      -0.00000   0.00000  -0.00013  -0.00001  -0.00017   0.00097
 154  H 2   pz      -0.00000   0.00000   0.00002  -0.00001   0.00002  -0.00009
 155  H 2   px       0.00000   0.00002  -0.00024   0.00002   0.00090  -0.00488
 156  H 2   py       0.00000  -0.00001   0.00012   0.00006  -0.00047   0.00281
 157  H 2   pz       0.00000  -0.00002  -0.00002   0.00002   0.00004  -0.00026
 158  H 2   px      -0.00010  -0.00001  -0.00622  -0.00013   0.00123  -0.00549
 159  H 2   py       0.00005  -0.00001   0.00477  -0.00004  -0.00052   0.00259
 160  H 2   pz       0.00001   0.00015  -0.00057  -0.00005   0.00004  -0.00013
 161  H 2   px      -0.00002   0.00014  -0.00218   0.00000   0.00050  -0.00108
 162  H 2   py       0.00007  -0.00006   0.00172  -0.00013   0.00009   0.00001
 163  H 2   pz       0.00002  -0.00004  -0.00009  -0.00009  -0.00005   0.00028
 164  H 2   d 1      0.00000  -0.00000  -0.00015   0.00000  -0.00010   0.00057
 165  H 2   d 2      0.00000  -0.00000  -0.00001  -0.00000  -0.00001   0.00004
 166  H 2   d 3     -0.00001   0.00001  -0.00007  -0.00000  -0.00007   0.00038
 167  H 2   d 4      0.00000  -0.00001   0.00002  -0.00000   0.00001  -0.00004
 168  H 2   d 5      0.00000   0.00000   0.00003  -0.00000   0.00006  -0.00034
 169  H 2   d 1      0.00001   0.00000   0.00215   0.00000  -0.00008   0.00053
 170  H 2   d 2     -0.00001  -0.00001   0.00019   0.00001   0.00000   0.00004
 171  H 2   d 3      0.00003  -0.00003   0.00121   0.00002  -0.00011   0.00049
 172  H 2   d 4     -0.00000   0.00005  -0.00028   0.00001   0.00002  -0.00014
 173  H 2   d 5     -0.00002  -0.00001  -0.00064   0.00002   0.00003  -0.00015
 174  H 2   d 1      0.00006  -0.00004   0.00252  -0.00003  -0.00009   0.00032
 175  H 2   d 2     -0.00001  -0.00005   0.00011   0.00012  -0.00001   0.00001
 176  H 2   d 3      0.00002   0.00006   0.00151   0.00000  -0.00005   0.00032
 177  H 2   d 4      0.00000  -0.00000  -0.00026  -0.00002  -0.00000   0.00009
 178  H 2   d 5     -0.00001   0.00006  -0.00082  -0.00008   0.00006  -0.00032
 179  H 2   f 1      0.00000   0.00000   0.00025  -0.00000  -0.00002   0.00012
 180  H 2   f 2     -0.00000  -0.00000   0.00004  -0.00000  -0.00000   0.00003
 181  H 2   f 3      0.00000  -0.00000  -0.00012   0.00000   0.00001  -0.00005
 182  H 2   f 4      0.00000   0.00000   0.00004  -0.00001  -0.00000   0.00001
 183  H 2   f 5      0.00000  -0.00000   0.00013  -0.00000  -0.00002   0.00010
 184  H 2   f 6      0.00000   0.00000  -0.00001  -0.00001  -0.00000  -0.00001
 185  H 2   f 7      0.00000  -0.00000   0.00008   0.00000  -0.00000   0.00000
 186  H 2   f 1      0.00002  -0.00001   0.00106   0.00001  -0.00003   0.00011
 187  H 2   f 2     -0.00000  -0.00002   0.00016   0.00002  -0.00001   0.00003
 188  H 2   f 3     -0.00001  -0.00000  -0.00049  -0.00001   0.00005  -0.00019
 189  H 2   f 4     -0.00000  -0.00003   0.00012   0.00004  -0.00002   0.00009
 190  H 2   f 5      0.00001   0.00001   0.00072   0.00001  -0.00001   0.00018
 191  H 2   f 6     -0.00001  -0.00000  -0.00009   0.00005   0.00001  -0.00003
 192  H 2   f 7     -0.00000   0.00001   0.00034  -0.00000  -0.00004   0.00018
 193  H 2   g 1      0.00000  -0.00000   0.00009   0.00000  -0.00001   0.00005
 194  H 2   g 2     -0.00000  -0.00000   0.00002  -0.00000  -0.00000   0.00002
 195  H 2   g 3     -0.00000  -0.00000  -0.00010  -0.00000   0.00001  -0.00006
 196  H 2   g 4     -0.00000   0.00000  -0.00002  -0.00000   0.00000  -0.00001
 197  H 2   g 5      0.00000  -0.00000  -0.00007   0.00000   0.00001  -0.00006
 198  H 2   g 6     -0.00000  -0.00000   0.00002   0.00000  -0.00000   0.00002
 199  H 2   g 7      0.00000   0.00000   0.00002  -0.00000  -0.00001   0.00003
 200  H 2   g 8     -0.00000  -0.00000   0.00000   0.00001  -0.00000  -0.00000
 201  H 2   g 9      0.00000  -0.00000   0.00012  -0.00000  -0.00001   0.00006
 202  O 2   s       -0.97850   0.00001  -0.00001  -0.00000  -0.01862  -0.00356
 203  O 2   s       -0.03097   0.00001   0.00001  -0.00000   0.28015   0.05499
 204  O 2   s       -0.08517   0.00002   0.00001   0.00000   0.00743   0.00155
 205  O 2   s        0.01579  -0.00026   0.00013  -0.00004   0.32157   0.06265
 206  O 2   s        0.01605   0.00142  -0.00067   0.00015   0.43493   0.08774
 207  O 2   s        0.00548   0.00042   0.00018   0.00034   0.16055   0.03189
 208  O 2   px      -0.00116   0.00000  -0.00000   0.00000   0.02322   0.00542
 209  O 2   py      -0.00033   0.00000   0.00000  -0.00000   0.00703   0.00256
 210  O 2   pz      -0.00005  -0.00000   0.00000   0.00000   0.00096   0.00025
 211  O 2   px      -0.00064  -0.00003   0.00002  -0.00001   0.03778   0.00885
 212  O 2   py      -0.00024  -0.00001  -0.00001   0.00000   0.01138   0.00418
 213  O 2   pz      -0.00004   0.00002  -0.00000  -0.00000   0.00156   0.00040
 214  O 2   px       0.00898   0.00022  -0.00004   0.00001   0.06427   0.01437
 215  O 2   py       0.00331   0.00002   0.00008  -0.00001   0.02011   0.00657
 216  O 2   pz       0.00058  -0.00006  -0.00001   0.00001   0.00287   0.00077
 217  O 2   px       0.00100   0.00058  -0.00092   0.00022   0.04146   0.01167
 218  O 2   py       0.00118  -0.00016   0.00019   0.00009   0.00809   0.00581
 219  O 2   pz       0.00093  -0.00027   0.00038   0.00002   0.00026  -0.00002
 220  O 2   px       0.00055   0.00002   0.00002  -0.00004   0.00467   0.00097
 221  O 2   py       0.00105  -0.00033   0.00054  -0.00012   0.00002   0.00055
 222  O 2   pz       0.00060  -0.00021   0.00022  -0.00001  -0.00077  -0.00022
 223  O 2   d 1      0.00000   0.00000  -0.00000  -0.00000   0.00007   0.00002
 224  O 2   d 2     -0.00026   0.00000  -0.00000   0.00000   0.00024   0.00006
 225  O 2   d 3      0.00012  -0.00000   0.00000   0.00000  -0.00017  -0.00004
 226  O 2   d 4      0.00008   0.00000   0.00000   0.00000  -0.00006  -0.00001
 227  O 2   d 5      0.00001   0.00000   0.00000  -0.00000   0.00007   0.00002
 228  O 2   d 1      0.00003  -0.00000   0.00002   0.00000   0.00013  -0.00004
 229  O 2   d 2      0.00046  -0.00002   0.00001  -0.00000   0.00215   0.00042
 230  O 2   d 3     -0.00023   0.00000  -0.00002  -0.00000  -0.00110  -0.00015
 231  O 2   d 4     -0.00013  -0.00001  -0.00000  -0.00000  -0.00056  -0.00011
 232  O 2   d 5     -0.00002   0.00000   0.00000  -0.00000   0.00017   0.00010
 233  O 2   d 1     -0.00035  -0.00000  -0.00011   0.00001   0.00078   0.00040
 234  O 2   d 2      0.00290   0.00016  -0.00003   0.00002   0.00965   0.00203
 235  O 2   d 3     -0.00091  -0.00003   0.00010   0.00000  -0.00505  -0.00119
 236  O 2   d 4     -0.00077  -0.00001  -0.00001   0.00000  -0.00272  -0.00043
 237  O 2   d 5     -0.00032  -0.00002   0.00001   0.00000   0.00100   0.00008
 238  O 2   d 1      0.00036  -0.00013   0.00026   0.00001   0.00012  -0.00065
 239  O 2   d 2     -0.00036   0.00017   0.00006   0.00006   0.00528   0.00158
 240  O 2   d 3      0.00019  -0.00001  -0.00010   0.00000  -0.00289  -0.00035
 241  O 2   d 4      0.00038  -0.00018   0.00014  -0.00000  -0.00229  -0.00040
 242  O 2   d 5     -0.00027  -0.00008  -0.00048   0.00003   0.00027   0.00004
 243  O 2   f 1      0.00009   0.00000  -0.00000  -0.00000  -0.00004  -0.00001
 244  O 2   f 2     -0.00013  -0.00000   0.00000  -0.00000   0.00005   0.00001
 245  O 2   f 3     -0.00001  -0.00000  -0.00000   0.00000   0.00002  -0.00000
 246  O 2   f 4     -0.00000   0.00000  -0.00000   0.00000  -0.00000   0.00000
 247  O 2   f 5     -0.00000   0.00000  -0.00000  -0.00000   0.00002  -0.00000
 248  O 2   f 6      0.00010   0.00000   0.00000   0.00000  -0.00003  -0.00001
 249  O 2   f 7      0.00006   0.00000  -0.00000  -0.00000  -0.00003  -0.00002
 250  O 2   f 1     -0.00068  -0.00001  -0.00000   0.00000  -0.00117  -0.00022
 251  O 2   f 2      0.00103   0.00003  -0.00001   0.00000   0.00221   0.00046
 252  O 2   f 3      0.00007   0.00000   0.00001  -0.00000   0.00002   0.00000
 253  O 2   f 4     -0.00000  -0.00000   0.00002  -0.00000  -0.00005  -0.00005
 254  O 2   f 5     -0.00000   0.00000   0.00000   0.00000  -0.00024  -0.00004
 255  O 2   f 6     -0.00078  -0.00001  -0.00000  -0.00000  -0.00164  -0.00033
 256  O 2   f 7     -0.00047  -0.00002   0.00002   0.00000  -0.00083  -0.00016
 257  O 2   f 1      0.00022  -0.00003  -0.00004   0.00001  -0.00155  -0.00033
 258  O 2   f 2     -0.00042   0.00009  -0.00004   0.00002   0.00275   0.00077
 259  O 2   f 3      0.00010  -0.00003   0.00009   0.00000   0.00055  -0.00033
 260  O 2   f 4     -0.00004   0.00001  -0.00007   0.00001   0.00010  -0.00003
 261  O 2   f 5      0.00009   0.00003   0.00007   0.00000  -0.00001  -0.00022
 262  O 2   f 6      0.00025  -0.00001  -0.00002  -0.00000  -0.00215  -0.00040
 263  O 2   f 7      0.00023  -0.00008   0.00010  -0.00002  -0.00040  -0.00082
 264  O 2   g 1     -0.00010  -0.00000   0.00000  -0.00000  -0.00014  -0.00003
 265  O 2   g 2      0.00006   0.00000  -0.00000  -0.00000   0.00008   0.00001
 266  O 2   g 3      0.00001   0.00000  -0.00000   0.00000   0.00002   0.00000
 267  O 2   g 4     -0.00008  -0.00000   0.00000   0.00000  -0.00011  -0.00002
 268  O 2   g 5     -0.00005  -0.00000   0.00000  -0.00000  -0.00006  -0.00001
 269  O 2   g 6      0.00003   0.00000   0.00000   0.00000   0.00003   0.00001
 270  O 2   g 7     -0.00001  -0.00000   0.00000  -0.00000  -0.00001  -0.00000
 271  O 2   g 8     -0.00008  -0.00000  -0.00000   0.00000  -0.00013  -0.00003
 272  O 2   g 9     -0.00003   0.00000   0.00000   0.00000  -0.00005  -0.00001
 273  O 2   g 1     -0.00003  -0.00000  -0.00001  -0.00000  -0.00084  -0.00016
 274  O 2   g 2     -0.00002   0.00001  -0.00001   0.00000   0.00050   0.00013
 275  O 2   g 3      0.00001  -0.00000   0.00001  -0.00000   0.00004   0.00000
 276  O 2   g 4     -0.00003  -0.00001   0.00001  -0.00000  -0.00056  -0.00016
 277  O 2   g 5     -0.00006  -0.00001  -0.00001  -0.00000  -0.00026  -0.00005
 278  O 2   g 6      0.00002  -0.00000  -0.00000   0.00000   0.00023   0.00001
 279  O 2   g 7     -0.00003   0.00000  -0.00001   0.00000  -0.00003  -0.00000
 280  O 2   g 8     -0.00001   0.00000   0.00001  -0.00000  -0.00075  -0.00016
 281  O 2   g 9      0.00001  -0.00001  -0.00000  -0.00000  -0.00020  -0.00009
 282  O 2   h 1     -0.00003   0.00000   0.00000  -0.00000  -0.00012  -0.00003
 283  O 2   h 2     -0.00001  -0.00000   0.00000   0.00000   0.00001  -0.00000
 284  O 2   h 3     -0.00003  -0.00000  -0.00000  -0.00000  -0.00005  -0.00001
 285  O 2   h 4     -0.00004  -0.00000   0.00000  -0.00000  -0.00012  -0.00003
 286  O 2   h 5     -0.00002  -0.00000  -0.00000   0.00000  -0.00005  -0.00001
 287  O 2   h 6     -0.00001   0.00000  -0.00000  -0.00000  -0.00001   0.00000
 288  O 2   h 7     -0.00005  -0.00000  -0.00000  -0.00000  -0.00009  -0.00002
 289  O 2   h 8      0.00003  -0.00000  -0.00000  -0.00000   0.00009   0.00002
 290  O 2   h 9     -0.00003  -0.00000  -0.00000  -0.00000  -0.00005  -0.00001
 291  O 2   h10      0.00002   0.00000   0.00000  -0.00000  -0.00003  -0.00001
 292  O 2   h11      0.00000  -0.00000  -0.00001  -0.00000  -0.00000  -0.00000
 293  H 3   s        0.00026   0.00001  -0.00000   0.00000   0.02415   0.00514
 294  H 3   s        0.00134  -0.00001   0.00001   0.00000   0.05411   0.01140
 295  H 3   s       -0.01130  -0.00059   0.00002  -0.00020   0.06337   0.01172
 296  H 3   s       -0.00509   0.00047  -0.00094  -0.00000   0.01950   0.00387
 297  H 3   s       -0.00018   0.00004  -0.00006   0.00002   0.00182   0.00040
 298  H 3   px      -0.00009   0.00000   0.00001  -0.00000  -0.00059  -0.00012
 299  H 3   py      -0.00018  -0.00000  -0.00001   0.00000  -0.00157  -0.00033
 300  H 3   pz      -0.00010  -0.00000   0.00001  -0.00000  -0.00095  -0.00020
 301  H 3   px       0.00010  -0.00000  -0.00004   0.00001  -0.00174  -0.00033
 302  H 3   py       0.00026   0.00002   0.00002  -0.00000  -0.00473  -0.00094
 303  H 3   pz       0.00016   0.00000  -0.00003   0.00000  -0.00279  -0.00060
 304  H 3   px       0.00361   0.00011   0.00020  -0.00002  -0.00089  -0.00024
 305  H 3   py       0.00703   0.00025  -0.00015   0.00007  -0.00582  -0.00081
 306  H 3   pz       0.00385   0.00017  -0.00014   0.00002  -0.00419  -0.00006
 307  H 3   px       0.00152  -0.00005   0.00027   0.00001   0.00022   0.00033
 308  H 3   py       0.00307  -0.00008   0.00011   0.00005  -0.00177  -0.00015
 309  H 3   pz       0.00173  -0.00002   0.00024  -0.00002  -0.00145   0.00007
 310  H 3   d 1      0.00009   0.00000   0.00000  -0.00000   0.00034   0.00006
 311  H 3   d 2      0.00008   0.00000  -0.00001   0.00000   0.00055   0.00012
 312  H 3   d 3     -0.00004  -0.00000  -0.00001   0.00000  -0.00013  -0.00000
 313  H 3   d 4      0.00005   0.00000   0.00000  -0.00000   0.00020   0.00004
 314  H 3   d 5     -0.00005  -0.00000   0.00000  -0.00000  -0.00039  -0.00008
 315  H 3   d 1     -0.00154  -0.00003  -0.00002   0.00000   0.00029   0.00013
 316  H 3   d 2     -0.00167  -0.00004   0.00007  -0.00001   0.00062   0.00002
 317  H 3   d 3      0.00058   0.00001   0.00006  -0.00000  -0.00013  -0.00015
 318  H 3   d 4     -0.00086  -0.00002   0.00002   0.00000   0.00015   0.00002
 319  H 3   d 5      0.00109   0.00004  -0.00002   0.00001  -0.00031  -0.00001
 320  H 3   d 1     -0.00192  -0.00000  -0.00008   0.00000  -0.00016   0.00006
 321  H 3   d 2     -0.00212  -0.00004   0.00000   0.00001   0.00061  -0.00011
 322  H 3   d 3      0.00067  -0.00001  -0.00001   0.00001   0.00020  -0.00022
 323  H 3   d 4     -0.00109  -0.00000  -0.00011   0.00002   0.00002  -0.00006
 324  H 3   d 5      0.00148   0.00002  -0.00012   0.00002  -0.00026  -0.00008
 325  H 3   f 1     -0.00002  -0.00000   0.00000  -0.00000   0.00003   0.00000
 326  H 3   f 2      0.00018   0.00000  -0.00000   0.00000  -0.00008  -0.00002
 327  H 3   f 3      0.00000  -0.00000  -0.00001   0.00000  -0.00001  -0.00000
 328  H 3   f 4     -0.00014  -0.00000   0.00001  -0.00000   0.00011   0.00002
 329  H 3   f 5     -0.00000  -0.00000  -0.00001   0.00000   0.00001   0.00000
 330  H 3   f 6     -0.00013  -0.00000   0.00000  -0.00000   0.00011   0.00002
 331  H 3   f 7     -0.00018  -0.00000  -0.00000  -0.00000   0.00008   0.00003
 332  H 3   f 1     -0.00014  -0.00001   0.00003  -0.00000  -0.00006  -0.00003
 333  H 3   f 2      0.00086  -0.00000   0.00002  -0.00001  -0.00015  -0.00004
 334  H 3   f 3     -0.00000   0.00000  -0.00001  -0.00000  -0.00002   0.00010
 335  H 3   f 4     -0.00070  -0.00000  -0.00002   0.00000   0.00009   0.00006
 336  H 3   f 5     -0.00002   0.00000   0.00000  -0.00000   0.00001   0.00005
 337  H 3   f 6     -0.00065  -0.00001   0.00002  -0.00000   0.00006  -0.00002
 338  H 3   f 7     -0.00082  -0.00000  -0.00000  -0.00000   0.00009   0.00006
 339  H 3   g 1      0.00008  -0.00000  -0.00000   0.00000  -0.00005  -0.00002
 340  H 3   g 2      0.00002   0.00000  -0.00000   0.00000  -0.00003  -0.00000
 341  H 3   g 3     -0.00003   0.00000   0.00000   0.00000   0.00002   0.00000
 342  H 3   g 4      0.00008   0.00000   0.00000  -0.00000  -0.00006  -0.00002
 343  H 3   g 5      0.00003  -0.00000  -0.00000  -0.00000  -0.00003  -0.00001
 344  H 3   g 6      0.00005  -0.00000   0.00000  -0.00000  -0.00003  -0.00001
 345  H 3   g 7      0.00002   0.00000  -0.00000  -0.00000  -0.00002  -0.00000
 346  H 3   g 8      0.00013  -0.00000   0.00000  -0.00000  -0.00007  -0.00002
 347  H 3   g 9      0.00003  -0.00000   0.00000  -0.00000  -0.00001  -0.00001
 348  H 4   s        0.00023   0.00000   0.00001   0.00000   0.02365   0.00468
 349  H 4   s        0.00138   0.00004  -0.00005   0.00000   0.05314   0.01053
 350  H 4   s       -0.00935  -0.00090   0.00082  -0.00012   0.06033   0.01166
 351  H 4   s       -0.00143  -0.00086   0.00072  -0.00023   0.01702   0.00289
 352  H 4   s       -0.00017  -0.00005  -0.00005   0.00003   0.00127   0.00022
 353  H 4   px      -0.00017   0.00000  -0.00000  -0.00000  -0.00140  -0.00027
 354  H 4   py       0.00010  -0.00000   0.00000  -0.00000   0.00089   0.00018
 355  H 4   pz       0.00010  -0.00000   0.00000   0.00000   0.00086   0.00017
 356  H 4   px       0.00015  -0.00001   0.00002   0.00000  -0.00428  -0.00081
 357  H 4   py      -0.00015   0.00000  -0.00001   0.00000   0.00272   0.00061
 358  H 4   pz      -0.00012   0.00000  -0.00002  -0.00000   0.00260   0.00051
 359  H 4   px       0.00636   0.00043  -0.00015   0.00003  -0.00436  -0.00060
 360  H 4   py      -0.00321  -0.00012   0.00020  -0.00003   0.00344   0.00109
 361  H 4   pz      -0.00332  -0.00013   0.00015  -0.00001   0.00348   0.00075
 362  H 4   px       0.00175   0.00049  -0.00028   0.00009  -0.00020   0.00064
 363  H 4   py      -0.00105  -0.00005   0.00012  -0.00001   0.00093   0.00075
 364  H 4   pz      -0.00109  -0.00008   0.00012  -0.00004   0.00091   0.00012
 365  H 4   d 1     -0.00010  -0.00000  -0.00000  -0.00000  -0.00047  -0.00010
 366  H 4   d 2      0.00005  -0.00000  -0.00000  -0.00000   0.00030   0.00006
 367  H 4   d 3     -0.00004   0.00000   0.00000   0.00000  -0.00015  -0.00002
 368  H 4   d 4     -0.00010  -0.00000   0.00000   0.00000  -0.00046  -0.00009
 369  H 4   d 5      0.00009   0.00000  -0.00000  -0.00000   0.00021   0.00004
 370  H 4   d 1      0.00151   0.00004  -0.00001   0.00000  -0.00039  -0.00015
 371  H 4   d 2     -0.00080  -0.00000   0.00002  -0.00000   0.00034   0.00013
 372  H 4   d 3      0.00061   0.00002  -0.00000   0.00000  -0.00019  -0.00006
 373  H 4   d 4      0.00154   0.00004  -0.00002   0.00000  -0.00050  -0.00011
 374  H 4   d 5     -0.00111  -0.00004   0.00000   0.00000   0.00036  -0.00000
 375  H 4   d 1      0.00178   0.00004   0.00002  -0.00000  -0.00002  -0.00029
 376  H 4   d 2     -0.00093   0.00002  -0.00001  -0.00001   0.00052   0.00024
 377  H 4   d 3      0.00066   0.00010  -0.00003   0.00001  -0.00013   0.00007
 378  H 4   d 4      0.00187   0.00006  -0.00002   0.00000  -0.00040  -0.00008
 379  H 4   d 5     -0.00121  -0.00016   0.00001  -0.00000  -0.00004  -0.00017
 380  H 4   f 1     -0.00018  -0.00000   0.00001  -0.00000   0.00009   0.00002
 381  H 4   f 2      0.00017   0.00000  -0.00001   0.00000  -0.00011  -0.00003
 382  H 4   f 3      0.00001  -0.00000  -0.00000   0.00000   0.00000   0.00000
 383  H 4   f 4      0.00013   0.00000  -0.00000   0.00000  -0.00009  -0.00002
 384  H 4   f 5     -0.00002   0.00000  -0.00001   0.00000  -0.00000  -0.00000
 385  H 4   f 6     -0.00013  -0.00000  -0.00000  -0.00000   0.00005   0.00000
 386  H 4   f 7      0.00003   0.00000  -0.00000  -0.00000  -0.00001   0.00000
 387  H 4   f 1     -0.00082  -0.00002  -0.00005   0.00000   0.00008   0.00004
 388  H 4   f 2      0.00083  -0.00000   0.00003  -0.00000  -0.00013  -0.00007
 389  H 4   f 3      0.00002   0.00001   0.00001   0.00000   0.00004   0.00001
 390  H 4   f 4      0.00067   0.00001  -0.00001  -0.00000  -0.00018  -0.00006
 391  H 4   f 5     -0.00009  -0.00002   0.00003  -0.00000   0.00008   0.00001
 392  H 4   f 6     -0.00058  -0.00003   0.00001   0.00000   0.00014   0.00003
 393  H 4   f 7      0.00013   0.00003   0.00001  -0.00000  -0.00015   0.00001
 394  H 4   g 1      0.00009   0.00000   0.00000   0.00000  -0.00005  -0.00001
 395  H 4   g 2     -0.00013  -0.00000  -0.00001  -0.00000   0.00007   0.00002
 396  H 4   g 3      0.00002  -0.00000  -0.00000  -0.00000  -0.00002  -0.00001
 397  H 4   g 4      0.00005   0.00000   0.00000   0.00000  -0.00003  -0.00001
 398  H 4   g 5      0.00002  -0.00000   0.00000  -0.00000  -0.00003  -0.00001
 399  H 4   g 6     -0.00010  -0.00000   0.00001   0.00000   0.00006   0.00001
 400  H 4   g 7     -0.00001   0.00000   0.00000   0.00000   0.00001  -0.00000
 401  H 4   g 8      0.00002   0.00000  -0.00000  -0.00000  -0.00000   0.00000
 402  H 4   g 9      0.00003  -0.00000   0.00000   0.00000  -0.00001  -0.00001
 403  O 3   s        0.00000  -0.00000  -0.00002   0.97832  -0.00017   0.00136
 404  O 3   s        0.00000  -0.00000  -0.00005   0.03068   0.00247  -0.01957
 405  O 3   s        0.00001  -0.00001  -0.00007   0.08473   0.00008  -0.00055
 406  O 3   s        0.00000   0.00002   0.00016  -0.01462   0.00278  -0.02223
 407  O 3   s       -0.00015   0.00004  -0.00017  -0.01297   0.00326  -0.02966
 408  O 3   s       -0.00007   0.00006  -0.00099  -0.00028   0.00141  -0.01266
 409  O 3   px       0.00000   0.00000   0.00000   0.00105   0.00022  -0.00171
 410  O 3   py      -0.00000  -0.00000   0.00000   0.00022   0.00017  -0.00112
 411  O 3   pz      -0.00000   0.00000  -0.00001  -0.00048  -0.00004   0.00039
 412  O 3   px       0.00000  -0.00000  -0.00002   0.00072   0.00036  -0.00276
 413  O 3   py       0.00000   0.00001  -0.00004   0.00028   0.00028  -0.00173
 414  O 3   pz       0.00000   0.00000   0.00003  -0.00025  -0.00007   0.00068
 415  O 3   px      -0.00003   0.00004   0.00010  -0.00832   0.00049  -0.00446
 416  O 3   py      -0.00003  -0.00006   0.00053  -0.00210   0.00036  -0.00301
 417  O 3   pz      -0.00000  -0.00003   0.00002   0.00342  -0.00006   0.00090
 418  O 3   px      -0.00002   0.00006  -0.00013  -0.00050   0.00037  -0.00307
 419  O 3   py      -0.00003  -0.00013   0.00014   0.00129   0.00032  -0.00280
 420  O 3   pz      -0.00000  -0.00003   0.00010   0.00085  -0.00007   0.00054
 421  O 3   px      -0.00002   0.00003  -0.00018   0.00005   0.00008  -0.00078
 422  O 3   py       0.00001  -0.00005   0.00008   0.00038   0.00016  -0.00046
 423  O 3   pz       0.00001  -0.00003   0.00011   0.00015   0.00012  -0.00003
 424  O 3   d 1      0.00000   0.00000  -0.00000   0.00002   0.00000  -0.00002
 425  O 3   d 2     -0.00000  -0.00000  -0.00000   0.00016   0.00000  -0.00001
 426  O 3   d 3     -0.00000   0.00000   0.00000  -0.00013  -0.00000   0.00002
 427  O 3   d 4     -0.00000   0.00000  -0.00000  -0.00015  -0.00000   0.00001
 428  O 3   d 5      0.00000   0.00000   0.00001  -0.00006  -0.00000   0.00001
 429  O 3   d 1     -0.00000   0.00000   0.00001  -0.00003   0.00001  -0.00006
 430  O 3   d 2      0.00000  -0.00000   0.00003  -0.00028   0.00001  -0.00010
 431  O 3   d 3      0.00000  -0.00000  -0.00001   0.00022  -0.00001   0.00010
 432  O 3   d 4      0.00000  -0.00000   0.00002   0.00028  -0.00001   0.00009
 433  O 3   d 5     -0.00000  -0.00001  -0.00002   0.00008  -0.00001   0.00003
 434  O 3   d 1      0.00000  -0.00002   0.00026  -0.00028   0.00005  -0.00053
 435  O 3   d 2     -0.00002   0.00001  -0.00023  -0.00168   0.00006  -0.00046
 436  O 3   d 3      0.00001   0.00002  -0.00010   0.00136  -0.00006   0.00059
 437  O 3   d 4     -0.00000  -0.00002  -0.00001   0.00137  -0.00002   0.00025
 438  O 3   d 5      0.00001   0.00004  -0.00001   0.00082  -0.00004   0.00037
 439  O 3   d 1      0.00001  -0.00004   0.00013   0.00048   0.00008  -0.00034
 440  O 3   d 2     -0.00001   0.00003  -0.00009   0.00042   0.00008  -0.00037
 441  O 3   d 3     -0.00000   0.00003  -0.00004  -0.00052  -0.00008   0.00047
 442  O 3   d 4     -0.00000  -0.00002   0.00005  -0.00023  -0.00002   0.00012
 443  O 3   d 5      0.00000   0.00007  -0.00003  -0.00033  -0.00007   0.00045
 444  O 3   f 1     -0.00000   0.00000  -0.00001  -0.00005  -0.00000   0.00000
 445  O 3   f 2      0.00000  -0.00000   0.00001   0.00010  -0.00000  -0.00000
 446  O 3   f 3     -0.00000  -0.00000   0.00000  -0.00008  -0.00000  -0.00000
 447  O 3   f 4     -0.00000  -0.00000  -0.00001   0.00003   0.00000  -0.00000
 448  O 3   f 5      0.00000  -0.00000   0.00000  -0.00001  -0.00000  -0.00000
 449  O 3   f 6     -0.00000   0.00000  -0.00001  -0.00002  -0.00000  -0.00000
 450  O 3   f 7      0.00000  -0.00000  -0.00000  -0.00011  -0.00000  -0.00000
 451  O 3   f 1      0.00000  -0.00000   0.00003   0.00036  -0.00001   0.00005
 452  O 3   f 2     -0.00000   0.00000  -0.00006  -0.00079   0.00002  -0.00012
 453  O 3   f 3      0.00000   0.00000  -0.00002   0.00058  -0.00001   0.00012
 454  O 3   f 4      0.00000   0.00000   0.00004  -0.00025  -0.00000   0.00000
 455  O 3   f 5     -0.00000   0.00000  -0.00002   0.00008  -0.00000   0.00004
 456  O 3   f 6      0.00000  -0.00000   0.00003   0.00020  -0.00001   0.00007
 457  O 3   f 7      0.00000   0.00000  -0.00002   0.00087  -0.00002   0.00017
 458  O 3   f 1      0.00001   0.00000   0.00005  -0.00016  -0.00000   0.00007
 459  O 3   f 2     -0.00001   0.00001  -0.00005   0.00026   0.00003  -0.00016
 460  O 3   f 3     -0.00000   0.00001  -0.00002  -0.00027  -0.00004   0.00023
 461  O 3   f 4      0.00001  -0.00001   0.00004   0.00006   0.00000  -0.00003
 462  O 3   f 5     -0.00000   0.00001  -0.00003  -0.00006  -0.00002   0.00008
 463  O 3   f 6      0.00000  -0.00003   0.00004  -0.00026  -0.00001   0.00002
 464  O 3   f 7     -0.00000   0.00003  -0.00006  -0.00029  -0.00006   0.00027
 465  O 3   g 1      0.00000  -0.00000   0.00000   0.00009  -0.00000   0.00001
 466  O 3   g 2      0.00000   0.00000  -0.00000  -0.00006   0.00000  -0.00000
 467  O 3   g 3      0.00000  -0.00000  -0.00000   0.00010  -0.00000   0.00001
 468  O 3   g 4      0.00000   0.00000   0.00000   0.00005  -0.00000   0.00000
 469  O 3   g 5      0.00000   0.00000   0.00000   0.00000  -0.00000   0.00000
 470  O 3   g 6     -0.00000   0.00000  -0.00000  -0.00002   0.00000  -0.00000
 471  O 3   g 7     -0.00000   0.00000   0.00000  -0.00004   0.00000  -0.00000
 472  O 3   g 8     -0.00000   0.00000  -0.00000  -0.00001  -0.00000   0.00000
 473  O 3   g 9      0.00000  -0.00000   0.00000   0.00008  -0.00000   0.00001
 474  O 3   g 1     -0.00000   0.00000  -0.00000   0.00000  -0.00001   0.00007
 475  O 3   g 2     -0.00000   0.00000   0.00000  -0.00004   0.00001  -0.00004
 476  O 3   g 3     -0.00000   0.00000  -0.00001   0.00002  -0.00001   0.00008
 477  O 3   g 4      0.00000  -0.00000   0.00003   0.00003  -0.00001   0.00002
 478  O 3   g 5      0.00000  -0.00000   0.00001   0.00002   0.00000  -0.00003
 479  O 3   g 6      0.00000  -0.00000   0.00002   0.00001  -0.00000  -0.00000
 480  O 3   g 7     -0.00000  -0.00000  -0.00000   0.00001   0.00001  -0.00004
 481  O 3   g 8      0.00000  -0.00001   0.00003  -0.00006  -0.00000   0.00001
 482  O 3   g 9     -0.00000   0.00000  -0.00002   0.00003  -0.00001   0.00005
 483  O 3   h 1     -0.00000  -0.00000  -0.00000   0.00003  -0.00000   0.00002
 484  O 3   h 2      0.00000   0.00000   0.00001  -0.00001   0.00000  -0.00000
 485  O 3   h 3     -0.00000  -0.00000  -0.00000   0.00003  -0.00000   0.00001
 486  O 3   h 4      0.00000   0.00000   0.00001   0.00002  -0.00000   0.00000
 487  O 3   h 5      0.00000  -0.00000   0.00000  -0.00005   0.00000  -0.00002
 488  O 3   h 6     -0.00000   0.00000  -0.00000  -0.00001   0.00000  -0.00000
 489  O 3   h 7      0.00000  -0.00000   0.00000   0.00002   0.00000  -0.00000
 490  O 3   h 8     -0.00000   0.00000  -0.00000  -0.00000   0.00000  -0.00000
 491  O 3   h 9      0.00000  -0.00000   0.00000  -0.00001   0.00000  -0.00001
 492  O 3   h10      0.00000  -0.00000   0.00000  -0.00004   0.00000  -0.00000
 493  O 3   h11     -0.00000  -0.00000  -0.00000  -0.00000   0.00000  -0.00000
 494  H 5   s        0.00000   0.00000   0.00001  -0.00011   0.00042  -0.00285
 495  H 5   s       -0.00001  -0.00001   0.00010  -0.00183   0.00086  -0.00627
 496  H 5   s        0.00004   0.00019  -0.00075   0.00721   0.00164  -0.00952
 497  H 5   s        0.00005   0.00000   0.00028   0.00042  -0.00002   0.00008
 498  H 5   s       -0.00007   0.00009   0.00006  -0.00031   0.00022  -0.00155
 499  H 5   px      -0.00000   0.00000   0.00001   0.00008  -0.00001   0.00006
 500  H 5   py       0.00000   0.00000   0.00002   0.00015  -0.00001   0.00007
 501  H 5   pz       0.00000  -0.00000   0.00001   0.00001  -0.00000  -0.00000
 502  H 5   px       0.00001  -0.00000  -0.00004   0.00014   0.00001   0.00004
 503  H 5   py       0.00000  -0.00001  -0.00009   0.00018   0.00003  -0.00005
 504  H 5   pz      -0.00001   0.00000  -0.00004   0.00000   0.00004  -0.00015
 505  H 5   px      -0.00005  -0.00005   0.00022  -0.00351   0.00000  -0.00027
 506  H 5   py      -0.00003  -0.00004   0.00057  -0.00584   0.00020  -0.00133
 507  H 5   pz       0.00003  -0.00004   0.00031  -0.00060   0.00008  -0.00064
 508  H 5   px      -0.00002  -0.00004  -0.00023  -0.00039  -0.00013  -0.00057
 509  H 5   py      -0.00003  -0.00012  -0.00019  -0.00099  -0.00047   0.00017
 510  H 5   pz       0.00000  -0.00006   0.00008  -0.00022  -0.00015   0.00053
 511  H 5   d 1     -0.00000   0.00000   0.00002  -0.00024   0.00001  -0.00006
 512  H 5   d 2     -0.00000  -0.00000   0.00004   0.00000   0.00000  -0.00004
 513  H 5   d 3      0.00000   0.00000  -0.00001   0.00014  -0.00001   0.00004
 514  H 5   d 4      0.00000   0.00000   0.00002  -0.00002   0.00000  -0.00001
 515  H 5   d 5      0.00000   0.00000  -0.00002   0.00008  -0.00001   0.00006
 516  H 5   d 1      0.00001   0.00000  -0.00010   0.00186   0.00002  -0.00005
 517  H 5   d 2     -0.00000   0.00000  -0.00018   0.00015   0.00004  -0.00017
 518  H 5   d 3     -0.00001  -0.00001   0.00007  -0.00116  -0.00001   0.00003
 519  H 5   d 4     -0.00001   0.00000  -0.00009   0.00017   0.00001  -0.00002
 520  H 5   d 5     -0.00000  -0.00000   0.00011  -0.00085  -0.00004   0.00013
 521  H 5   d 1      0.00004   0.00004  -0.00005   0.00213   0.00009   0.00005
 522  H 5   d 2     -0.00002   0.00003  -0.00006   0.00070  -0.00000  -0.00013
 523  H 5   d 3     -0.00002  -0.00000   0.00005  -0.00144  -0.00007   0.00008
 524  H 5   d 4      0.00000   0.00003  -0.00005   0.00036   0.00001   0.00004
 525  H 5   d 5      0.00001   0.00001   0.00016  -0.00156  -0.00004   0.00027
 526  H 5   f 1      0.00000   0.00000   0.00000  -0.00002  -0.00000   0.00002
 527  H 5   f 2      0.00000  -0.00000  -0.00001  -0.00004   0.00000  -0.00002
 528  H 5   f 3     -0.00000   0.00000   0.00000   0.00014   0.00000  -0.00000
 529  H 5   f 4      0.00000   0.00000   0.00001   0.00002  -0.00000   0.00002
 530  H 5   f 5     -0.00000   0.00000  -0.00000   0.00008   0.00000  -0.00001
 531  H 5   f 6      0.00000   0.00000   0.00001   0.00002  -0.00000   0.00002
 532  H 5   f 7      0.00000   0.00000   0.00001   0.00021  -0.00000   0.00002
 533  H 5   f 1     -0.00001  -0.00001  -0.00006  -0.00006   0.00001  -0.00008
 534  H 5   f 2      0.00000  -0.00001   0.00014  -0.00023  -0.00003   0.00013
 535  H 5   f 3      0.00001   0.00000  -0.00002   0.00079   0.00001   0.00002
 536  H 5   f 4     -0.00001   0.00001  -0.00012   0.00019   0.00002  -0.00010
 537  H 5   f 5      0.00001   0.00000   0.00001   0.00046   0.00000   0.00004
 538  H 5   f 6     -0.00001  -0.00000  -0.00009   0.00008   0.00003  -0.00014
 539  H 5   f 7      0.00000  -0.00000  -0.00011   0.00120   0.00005  -0.00012
 540  H 5   g 1     -0.00000   0.00000   0.00001  -0.00015   0.00000  -0.00001
 541  H 5   g 2      0.00000   0.00000  -0.00000   0.00000   0.00000  -0.00001
 542  H 5   g 3     -0.00000  -0.00000   0.00000  -0.00012  -0.00000   0.00000
 543  H 5   g 4      0.00000  -0.00000   0.00002  -0.00004   0.00000  -0.00001
 544  H 5   g 5      0.00000  -0.00000   0.00000   0.00009   0.00000  -0.00000
 545  H 5   g 6      0.00000  -0.00000   0.00001  -0.00002   0.00000  -0.00000
 546  H 5   g 7     -0.00000  -0.00000  -0.00000   0.00006   0.00000  -0.00000
 547  H 5   g 8      0.00000  -0.00000   0.00002  -0.00005   0.00000  -0.00001
 548  H 5   g 9     -0.00000  -0.00000  -0.00000  -0.00011  -0.00000   0.00001
 549  H 6   s        0.00000  -0.00000  -0.00000  -0.00022   0.00018  -0.00152
 550  H 6   s       -0.00001   0.00003  -0.00010  -0.00130   0.00039  -0.00335
 551  H 6   s        0.00005  -0.00019   0.00068   0.00952   0.00051  -0.00446
 552  H 6   s        0.00008  -0.00021   0.00075   0.00164   0.00021  -0.00046
 553  H 6   s        0.00002  -0.00003  -0.00002   0.00031   0.00004  -0.00005
 554  H 6   px      -0.00000   0.00000   0.00000   0.00014  -0.00001   0.00007
 555  H 6   py       0.00000   0.00000   0.00000  -0.00012   0.00001  -0.00007
 556  H 6   pz      -0.00000  -0.00000   0.00000  -0.00012   0.00001  -0.00007
 557  H 6   px       0.00000  -0.00000   0.00001  -0.00008  -0.00002   0.00022
 558  H 6   py      -0.00000   0.00000  -0.00003   0.00017   0.00002  -0.00023
 559  H 6   pz      -0.00000   0.00000  -0.00002   0.00011   0.00002  -0.00020
 560  H 6   px      -0.00002   0.00004  -0.00027  -0.00535  -0.00004   0.00035
 561  H 6   py       0.00003  -0.00009   0.00027   0.00361   0.00010  -0.00058
 562  H 6   pz       0.00002  -0.00005   0.00022   0.00423   0.00008  -0.00043
 563  H 6   px      -0.00002   0.00005  -0.00025  -0.00158  -0.00006  -0.00005
 564  H 6   py       0.00003  -0.00010   0.00020   0.00115   0.00006  -0.00015
 565  H 6   pz       0.00002  -0.00006   0.00021   0.00128   0.00002   0.00000
 566  H 6   d 1      0.00000  -0.00000   0.00000   0.00012  -0.00000   0.00002
 567  H 6   d 2     -0.00000   0.00000  -0.00001  -0.00007   0.00000  -0.00003
 568  H 6   d 3      0.00000  -0.00000   0.00000  -0.00000  -0.00000   0.00001
 569  H 6   d 4      0.00000  -0.00000   0.00001   0.00013  -0.00000   0.00002
 570  H 6   d 5      0.00000  -0.00000  -0.00000  -0.00006  -0.00000   0.00000
 571  H 6   d 1     -0.00000   0.00001  -0.00004  -0.00150  -0.00001   0.00009
 572  H 6   d 2      0.00000  -0.00001   0.00004   0.00118   0.00001  -0.00006
 573  H 6   d 3     -0.00000   0.00000  -0.00001  -0.00010   0.00000   0.00000
 574  H 6   d 4     -0.00000   0.00001  -0.00005  -0.00166  -0.00001   0.00009
 575  H 6   d 5      0.00000   0.00001   0.00001   0.00052  -0.00000   0.00000
 576  H 6   d 1     -0.00001   0.00004  -0.00013  -0.00172  -0.00003   0.00006
 577  H 6   d 2      0.00002  -0.00004   0.00011   0.00136   0.00004  -0.00014
 578  H 6   d 3     -0.00001   0.00001  -0.00001  -0.00012  -0.00001   0.00003
 579  H 6   d 4     -0.00001   0.00001  -0.00010  -0.00187  -0.00002   0.00004
 580  H 6   d 5     -0.00001   0.00002   0.00001   0.00055  -0.00002   0.00008
 581  H 6   f 1      0.00000  -0.00000   0.00000   0.00014   0.00000  -0.00000
 582  H 6   f 2     -0.00000   0.00000  -0.00000  -0.00022  -0.00000   0.00001
 583  H 6   f 3      0.00000  -0.00000  -0.00000   0.00005   0.00000  -0.00000
 584  H 6   f 4     -0.00000   0.00000  -0.00000  -0.00012  -0.00000   0.00001
 585  H 6   f 5      0.00000   0.00000  -0.00000  -0.00006  -0.00000   0.00000
 586  H 6   f 6      0.00000   0.00000   0.00000   0.00008   0.00000  -0.00000
 587  H 6   f 7      0.00000  -0.00000  -0.00000   0.00005   0.00000  -0.00000
 588  H 6   f 1     -0.00000  -0.00000   0.00002   0.00062   0.00000  -0.00001
 589  H 6   f 2     -0.00000   0.00001  -0.00004  -0.00103  -0.00001   0.00003
 590  H 6   f 3     -0.00000  -0.00000   0.00001   0.00023   0.00000  -0.00001
 591  H 6   f 4     -0.00000   0.00001  -0.00003  -0.00060  -0.00001   0.00003
 592  H 6   f 5     -0.00000  -0.00000  -0.00001  -0.00030  -0.00000   0.00002
 593  H 6   f 6     -0.00000   0.00001   0.00001   0.00031  -0.00000   0.00000
 594  H 6   f 7      0.00000  -0.00001   0.00001   0.00023   0.00000  -0.00002
 595  H 6   g 1      0.00000  -0.00000  -0.00000  -0.00004   0.00000  -0.00000
 596  H 6   g 2     -0.00000  -0.00000   0.00000   0.00013   0.00000  -0.00000
 597  H 6   g 3     -0.00000   0.00000  -0.00000  -0.00009  -0.00000   0.00000
 598  H 6   g 4     -0.00000   0.00000  -0.00000  -0.00003  -0.00000   0.00000
 599  H 6   g 5     -0.00000   0.00000  -0.00000  -0.00007  -0.00000   0.00000
 600  H 6   g 6      0.00000  -0.00000   0.00000   0.00006   0.00000  -0.00000
 601  H 6   g 7      0.00000   0.00000   0.00000   0.00003   0.00000  -0.00000
 602  H 6   g 8      0.00000  -0.00000  -0.00000   0.00004   0.00000  -0.00000
 603  H 6   g 9     -0.00000   0.00000  -0.00000  -0.00006   0.00000   0.00000
 604  O 4   s       -0.00001   0.97836  -0.00014  -0.00000  -0.00020   0.00050
 605  O 4   s       -0.00002   0.03075   0.00001  -0.00000   0.00304  -0.00737
 606  O 4   s       -0.00003   0.08480   0.00001  -0.00001   0.00009  -0.00018
 607  O 4   s        0.00014  -0.01474   0.00001  -0.00001   0.00358  -0.00859
 608  O 4   s       -0.00017  -0.01418  -0.00049   0.00019   0.00433  -0.01109
 609  O 4   s       -0.00071  -0.00148  -0.00042   0.00015   0.00156  -0.00409
 610  O 4   px      -0.00000   0.00108  -0.00000   0.00000   0.00026  -0.00055
 611  O 4   py       0.00000  -0.00024   0.00000  -0.00000  -0.00007   0.00025
 612  O 4   pz      -0.00000  -0.00051   0.00000  -0.00000  -0.00005   0.00017
 613  O 4   px       0.00002   0.00055   0.00001  -0.00000   0.00045  -0.00091
 614  O 4   py      -0.00001  -0.00015  -0.00002   0.00002  -0.00015   0.00040
 615  O 4   pz       0.00001  -0.00027  -0.00000   0.00000  -0.00008   0.00028
 616  O 4   px      -0.00002  -0.00740  -0.00006   0.00003   0.00063  -0.00147
 617  O 4   py       0.00008   0.00203   0.00020  -0.00010   0.00001   0.00081
 618  O 4   pz      -0.00005   0.00352   0.00002  -0.00000  -0.00017   0.00045
 619  O 4   px      -0.00043  -0.00060  -0.00012   0.00004   0.00018  -0.00087
 620  O 4   py       0.00044   0.00003   0.00016  -0.00028   0.00033   0.00024
 621  O 4   pz      -0.00011   0.00043   0.00023   0.00003   0.00040   0.00028
 622  O 4   px      -0.00008   0.00003  -0.00008   0.00001  -0.00004  -0.00012
 623  O 4   py       0.00013  -0.00013   0.00002  -0.00004   0.00017  -0.00004
 624  O 4   pz      -0.00000   0.00009  -0.00001   0.00000   0.00003   0.00012
 625  O 4   d 1      0.00000   0.00000  -0.00000  -0.00000  -0.00000   0.00000
 626  O 4   d 2      0.00000  -0.00008  -0.00000   0.00000  -0.00000   0.00000
 627  O 4   d 3      0.00000  -0.00019   0.00000   0.00000  -0.00000   0.00001
 628  O 4   d 4      0.00000  -0.00014   0.00000  -0.00000   0.00000   0.00000
 629  O 4   d 5     -0.00000  -0.00014  -0.00000   0.00000   0.00000   0.00000
 630  O 4   d 1     -0.00001   0.00001   0.00001   0.00000  -0.00001   0.00002
 631  O 4   d 2     -0.00001   0.00012   0.00001  -0.00000  -0.00001   0.00002
 632  O 4   d 3     -0.00001   0.00031  -0.00000   0.00000  -0.00001   0.00004
 633  O 4   d 4     -0.00000   0.00024  -0.00000  -0.00000  -0.00002   0.00003
 634  O 4   d 5      0.00000   0.00021  -0.00000   0.00000  -0.00002   0.00003
 635  O 4   d 1      0.00011  -0.00018   0.00004  -0.00005   0.00009   0.00006
 636  O 4   d 2      0.00003   0.00093  -0.00003   0.00002  -0.00007   0.00008
 637  O 4   d 3      0.00003   0.00207   0.00004  -0.00002  -0.00005   0.00021
 638  O 4   d 4     -0.00001   0.00120   0.00001   0.00000   0.00000   0.00011
 639  O 4   d 5     -0.00003   0.00200   0.00007  -0.00002   0.00003   0.00014
 640  O 4   d 1      0.00020  -0.00012   0.00002  -0.00009   0.00019  -0.00010
 641  O 4   d 2      0.00011  -0.00028   0.00000   0.00002  -0.00021   0.00016
 642  O 4   d 3      0.00011  -0.00049   0.00001  -0.00002   0.00013   0.00006
 643  O 4   d 4     -0.00001  -0.00031   0.00006   0.00002   0.00021   0.00010
 644  O 4   d 5     -0.00007  -0.00028   0.00006  -0.00003  -0.00011   0.00011
 645  O 4   f 1     -0.00000   0.00007   0.00000   0.00000  -0.00000  -0.00000
 646  O 4   f 2      0.00000  -0.00006   0.00000  -0.00000  -0.00000   0.00000
 647  O 4   f 3      0.00000   0.00005   0.00000  -0.00000   0.00000  -0.00000
 648  O 4   f 4     -0.00000   0.00006  -0.00000  -0.00000   0.00000  -0.00000
 649  O 4   f 5      0.00000  -0.00004   0.00000   0.00000   0.00000  -0.00000
 650  O 4   f 6     -0.00000   0.00002   0.00000  -0.00000   0.00000  -0.00000
 651  O 4   f 7     -0.00000  -0.00014   0.00000   0.00000  -0.00000   0.00000
 652  O 4   f 1      0.00001  -0.00051  -0.00000   0.00000   0.00001  -0.00002
 653  O 4   f 2     -0.00000   0.00046  -0.00000   0.00000  -0.00001   0.00002
 654  O 4   f 3     -0.00001  -0.00042  -0.00001   0.00001   0.00000  -0.00003
 655  O 4   f 4      0.00000  -0.00050   0.00000   0.00000   0.00001  -0.00001
 656  O 4   f 5     -0.00000   0.00028  -0.00000  -0.00000  -0.00001   0.00002
 657  O 4   f 6      0.00001  -0.00017  -0.00000   0.00000  -0.00000   0.00000
 658  O 4   f 7      0.00001   0.00113   0.00001  -0.00000  -0.00000   0.00005
 659  O 4   f 1      0.00005   0.00017  -0.00002  -0.00001   0.00004  -0.00006
 660  O 4   f 2      0.00005  -0.00022   0.00001   0.00001  -0.00006   0.00006
 661  O 4   f 3     -0.00004   0.00019  -0.00001   0.00001  -0.00003  -0.00001
 662  O 4   f 4      0.00002   0.00022  -0.00003  -0.00001  -0.00006  -0.00003
 663  O 4   f 5      0.00005  -0.00013  -0.00001  -0.00000   0.00004   0.00001
 664  O 4   f 6      0.00003   0.00000  -0.00001  -0.00000  -0.00000   0.00003
 665  O 4   f 7      0.00004  -0.00047   0.00001  -0.00001  -0.00000   0.00006
 666  O 4   g 1      0.00000  -0.00008  -0.00000   0.00000  -0.00000  -0.00000
 667  O 4   g 2     -0.00000   0.00005  -0.00000  -0.00000  -0.00000   0.00000
 668  O 4   g 3      0.00000  -0.00006  -0.00000   0.00000   0.00000  -0.00000
 669  O 4   g 4      0.00000  -0.00002   0.00000  -0.00000   0.00000   0.00000
 670  O 4   g 5      0.00000  -0.00003  -0.00000   0.00000   0.00000  -0.00000
 671  O 4   g 6      0.00000  -0.00005   0.00000   0.00000   0.00000  -0.00000
 672  O 4   g 7     -0.00000  -0.00004  -0.00000   0.00000  -0.00000  -0.00000
 673  O 4   g 8     -0.00000  -0.00008   0.00000   0.00000   0.00000  -0.00000
 674  O 4   g 9     -0.00000   0.00008   0.00000  -0.00000  -0.00000   0.00000
 675  O 4   g 1     -0.00001   0.00003   0.00000   0.00000   0.00000  -0.00001
 676  O 4   g 2      0.00000  -0.00003  -0.00000   0.00000  -0.00001   0.00001
 677  O 4   g 3     -0.00001   0.00001  -0.00000   0.00000  -0.00000  -0.00001
 678  O 4   g 4     -0.00001  -0.00003  -0.00000  -0.00000   0.00001  -0.00001
 679  O 4   g 5     -0.00001  -0.00003   0.00000   0.00000  -0.00000  -0.00001
 680  O 4   g 6     -0.00000  -0.00000   0.00000  -0.00000  -0.00001  -0.00001
 681  O 4   g 7      0.00000  -0.00004  -0.00000   0.00000   0.00001  -0.00001
 682  O 4   g 8      0.00001  -0.00003  -0.00000  -0.00000   0.00000  -0.00000
 683  O 4   g 9      0.00002  -0.00007  -0.00001   0.00000   0.00001   0.00001
 684  O 4   h 1     -0.00000   0.00001   0.00000   0.00000  -0.00000  -0.00000
 685  O 4   h 2     -0.00000  -0.00000  -0.00000   0.00000   0.00000   0.00000
 686  O 4   h 3     -0.00000   0.00001   0.00000   0.00000  -0.00000  -0.00000
 687  O 4   h 4     -0.00000  -0.00002  -0.00000  -0.00000   0.00000  -0.00000
 688  O 4   h 5      0.00000   0.00005   0.00000  -0.00000  -0.00000   0.00000
 689  O 4   h 6     -0.00000   0.00003  -0.00000   0.00000   0.00000   0.00000
 690  O 4   h 7     -0.00000   0.00000   0.00000   0.00000  -0.00000   0.00000
 691  O 4   h 8     -0.00000   0.00002  -0.00000  -0.00000  -0.00000  -0.00000
 692  O 4   h 9     -0.00000  -0.00002  -0.00000   0.00000   0.00000  -0.00000
 693  O 4   h10     -0.00000  -0.00004  -0.00000  -0.00000   0.00000  -0.00000
 694  O 4   h11      0.00000  -0.00004  -0.00000   0.00000   0.00000  -0.00000
 695  H 7   s       -0.00000  -0.00020   0.00000   0.00000   0.00029  -0.00072
 696  H 7   s        0.00000  -0.00164  -0.00006   0.00002   0.00053  -0.00163
 697  H 7   s        0.00046   0.00964   0.00049  -0.00034   0.00185  -0.00207
 698  H 7   s        0.00078   0.00093   0.00031  -0.00023   0.00065  -0.00147
 699  H 7   s        0.00007   0.00010  -0.00006   0.00000  -0.00017   0.00012
 700  H 7   px       0.00000   0.00009  -0.00000  -0.00000   0.00000   0.00002
 701  H 7   py       0.00000  -0.00019   0.00000   0.00000   0.00001  -0.00003
 702  H 7   pz      -0.00000  -0.00001   0.00000   0.00000   0.00001  -0.00001
 703  H 7   px      -0.00001  -0.00002   0.00002  -0.00000  -0.00006   0.00007
 704  H 7   py      -0.00000   0.00009  -0.00002  -0.00000   0.00006  -0.00019
 705  H 7   pz       0.00000  -0.00002  -0.00000  -0.00000  -0.00001  -0.00001
 706  H 7   px       0.00004  -0.00363  -0.00019   0.00006   0.00001  -0.00002
 707  H 7   py       0.00023   0.00702   0.00026  -0.00015   0.00051  -0.00004
 708  H 7   pz       0.00012   0.00084   0.00000  -0.00001   0.00004  -0.00004
 709  H 7   px       0.00007  -0.00100  -0.00003   0.00005   0.00012  -0.00011
 710  H 7   py       0.00042   0.00194   0.00010  -0.00011   0.00015  -0.00009
 711  H 7   pz       0.00019  -0.00004  -0.00002  -0.00004  -0.00027  -0.00032
 712  H 7   d 1     -0.00000   0.00016   0.00000  -0.00000  -0.00000   0.00002
 713  H 7   d 2      0.00000  -0.00004  -0.00000   0.00000  -0.00000  -0.00001
 714  H 7   d 3     -0.00000   0.00010   0.00000  -0.00000  -0.00000   0.00001
 715  H 7   d 4      0.00000   0.00002   0.00001  -0.00000  -0.00000   0.00000
 716  H 7   d 5      0.00000   0.00010   0.00000  -0.00000   0.00000   0.00001
 717  H 7   d 1     -0.00000  -0.00185  -0.00004   0.00002  -0.00004   0.00001
 718  H 7   d 2      0.00002   0.00042   0.00002  -0.00001   0.00002   0.00004
 719  H 7   d 3     -0.00000  -0.00128  -0.00002   0.00002  -0.00005   0.00004
 720  H 7   d 4     -0.00002  -0.00025  -0.00004   0.00000   0.00001  -0.00000
 721  H 7   d 5     -0.00003  -0.00130  -0.00002   0.00002  -0.00009   0.00002
 722  H 7   d 1      0.00010  -0.00213  -0.00010   0.00003   0.00003  -0.00004
 723  H 7   d 2      0.00013   0.00041  -0.00005   0.00000  -0.00018   0.00006
 724  H 7   d 3     -0.00003  -0.00152  -0.00007   0.00001  -0.00007  -0.00012
 725  H 7   d 4     -0.00002  -0.00020   0.00006   0.00000   0.00008  -0.00006
 726  H 7   d 5     -0.00014  -0.00156  -0.00003   0.00004  -0.00003   0.00004
 727  H 7   f 1     -0.00000  -0.00003   0.00000   0.00000  -0.00001   0.00000
 728  H 7   f 2     -0.00000  -0.00006  -0.00000   0.00000  -0.00000   0.00000
 729  H 7   f 3     -0.00000  -0.00016  -0.00000   0.00000  -0.00000   0.00000
 730  H 7   f 4      0.00000  -0.00005   0.00000   0.00000  -0.00000   0.00000
 731  H 7   f 5      0.00000   0.00008  -0.00000  -0.00000   0.00000  -0.00000
 732  H 7   f 6     -0.00000  -0.00004  -0.00000   0.00000  -0.00000  -0.00000
 733  H 7   f 7      0.00000   0.00024   0.00000  -0.00000   0.00001  -0.00000
 734  H 7   f 1     -0.00004  -0.00019   0.00000   0.00000  -0.00001   0.00001
 735  H 7   f 2     -0.00001  -0.00025  -0.00001   0.00000   0.00001  -0.00001
 736  H 7   f 3     -0.00000  -0.00080  -0.00002   0.00001  -0.00004   0.00001
 737  H 7   f 4     -0.00002  -0.00025  -0.00000   0.00000   0.00002  -0.00003
 738  H 7   f 5     -0.00001   0.00040   0.00003  -0.00000   0.00001  -0.00000
 739  H 7   f 6     -0.00002  -0.00013   0.00000   0.00000   0.00003  -0.00000
 740  H 7   f 7     -0.00002   0.00115   0.00003  -0.00001   0.00001   0.00001
 741  H 7   g 1     -0.00000   0.00014   0.00000  -0.00000   0.00000  -0.00000
 742  H 7   g 2     -0.00000   0.00000   0.00000   0.00000   0.00000  -0.00000
 743  H 7   g 3     -0.00000   0.00009   0.00000  -0.00000   0.00000  -0.00000
 744  H 7   g 4     -0.00000  -0.00005  -0.00000   0.00000   0.00000  -0.00000
 745  H 7   g 5     -0.00000   0.00007   0.00000  -0.00000   0.00000  -0.00000
 746  H 7   g 6      0.00000   0.00003   0.00000  -0.00000  -0.00000   0.00000
 747  H 7   g 7      0.00000   0.00006   0.00000  -0.00000   0.00000  -0.00000
 748  H 7   g 8      0.00000   0.00004   0.00000  -0.00000   0.00000   0.00000
 749  H 7   g 9      0.00001  -0.00005  -0.00000  -0.00000   0.00000  -0.00000
 750  H 8   s       -0.00000  -0.00018   0.00000  -0.00000   0.00025  -0.00055
 751  H 8   s        0.00004  -0.00164   0.00000  -0.00000   0.00055  -0.00122
 752  H 8   s       -0.00006   0.00902   0.00008   0.00016   0.00080  -0.00155
 753  H 8   s       -0.00024   0.00134   0.00021   0.00004  -0.00017  -0.00024
 754  H 8   s        0.00001   0.00021  -0.00002   0.00001   0.00019  -0.00007
 755  H 8   px       0.00000   0.00012  -0.00000   0.00000  -0.00000   0.00002
 756  H 8   py       0.00000   0.00013  -0.00000   0.00000  -0.00001   0.00003
 757  H 8   pz      -0.00000  -0.00008  -0.00000  -0.00000   0.00001  -0.00002
 758  H 8   px      -0.00002   0.00003   0.00001  -0.00000  -0.00006   0.00008
 759  H 8   py      -0.00001  -0.00001   0.00001  -0.00000  -0.00004   0.00010
 760  H 8   pz       0.00001  -0.00002   0.00001   0.00000   0.00003  -0.00006
 761  H 8   px       0.00009  -0.00481  -0.00004  -0.00003   0.00004   0.00016
 762  H 8   py       0.00002  -0.00483  -0.00002  -0.00004  -0.00015   0.00023
 763  H 8   pz      -0.00005   0.00316  -0.00004   0.00003   0.00003  -0.00009
 764  H 8   px       0.00011  -0.00138  -0.00004  -0.00002   0.00037  -0.00001
 765  H 8   py       0.00011  -0.00139  -0.00008  -0.00001   0.00012   0.00003
 766  H 8   pz      -0.00008   0.00090   0.00001   0.00001  -0.00008  -0.00004
 767  H 8   d 1      0.00000  -0.00016   0.00000   0.00000   0.00001  -0.00001
[...]
 195  H 2   g 3     -0.00001
 196  H 2   g 4      0.00008
 197  H 2   g 5     -0.00000
 198  H 2   g 6     -0.00012
 199  H 2   g 7      0.00005
 200  H 2   g 8     -0.00002
 201  H 2   g 9     -0.00008
 202  O 2   s        0.00022
 203  O 2   s        0.00670
 204  O 2   s       -0.00005
 205  O 2   s        0.00512
 206  O 2   s        0.14392
 207  O 2   s        0.21027
 208  O 2   px      -0.01009
 209  O 2   py      -0.00741
 210  O 2   pz       0.00798
 211  O 2   px      -0.01686
 212  O 2   py      -0.01203
 213  O 2   pz       0.01248
 214  O 2   px      -0.01378
 215  O 2   py      -0.00920
 216  O 2   pz       0.03013
 217  O 2   px       0.02932
 218  O 2   py      -0.09103
 219  O 2   pz       0.01480
 220  O 2   px       0.11750
 221  O 2   py       0.09510
 222  O 2   pz       0.03299
 223  O 2   d 1     -0.00026
 224  O 2   d 2     -0.00027
 225  O 2   d 3      0.00010
 226  O 2   d 4      0.00013
 227  O 2   d 5     -0.00017
 228  O 2   d 1      0.00008
 229  O 2   d 2      0.00084
 230  O 2   d 3      0.00026
 231  O 2   d 4     -0.00052
 232  O 2   d 5      0.00072
 233  O 2   d 1     -0.00243
 234  O 2   d 2      0.00262
 235  O 2   d 3      0.00009
 236  O 2   d 4      0.00590
 237  O 2   d 5     -0.00555
 238  O 2   d 1     -0.04200
 239  O 2   d 2      0.00154
 240  O 2   d 3      0.01300
 241  O 2   d 4     -0.00782
 242  O 2   d 5      0.04029
 243  O 2   f 1     -0.00018
 244  O 2   f 2     -0.00011
 245  O 2   f 3     -0.00021
 246  O 2   f 4      0.00014
 247  O 2   f 5     -0.00002
 248  O 2   f 6      0.00000
 249  O 2   f 7     -0.00004
 250  O 2   f 1      0.00076
 251  O 2   f 2      0.00090
 252  O 2   f 3      0.00147
 253  O 2   f 4     -0.00098
 254  O 2   f 5      0.00014
 255  O 2   f 6     -0.00006
 256  O 2   f 7     -0.00018
 257  O 2   f 1     -0.00065
 258  O 2   f 2     -0.00355
 259  O 2   f 3      0.00349
 260  O 2   f 4      0.00473
 261  O 2   f 5     -0.00253
 262  O 2   f 6      0.00499
 263  O 2   f 7      0.00105
 264  O 2   g 1     -0.00013
 265  O 2   g 2     -0.00006
 266  O 2   g 3     -0.00001
 267  O 2   g 4     -0.00007
 268  O 2   g 5      0.00001
 269  O 2   g 6     -0.00007
 270  O 2   g 7      0.00009
 271  O 2   g 8     -0.00007
 272  O 2   g 9     -0.00000
 273  O 2   g 1      0.00134
 274  O 2   g 2     -0.00020
 275  O 2   g 3      0.00074
 276  O 2   g 4      0.00077
 277  O 2   g 5      0.00006
 278  O 2   g 6      0.00022
 279  O 2   g 7     -0.00114
 280  O 2   g 8      0.00102
 281  O 2   g 9     -0.00035
 282  O 2   h 1      0.00011
 283  O 2   h 2     -0.00007
 284  O 2   h 3      0.00008
 285  O 2   h 4      0.00008
 286  O 2   h 5     -0.00001
 287  O 2   h 6     -0.00004
 288  O 2   h 7      0.00015
 289  O 2   h 8     -0.00010
 290  O 2   h 9     -0.00003
 291  O 2   h10      0.00009
 292  O 2   h11     -0.00003
 293  H 3   s       -0.00187
 294  H 3   s        0.00252
 295  H 3   s        0.02919
 296  H 3   s       -0.21215
 297  H 3   s       -0.02871
 298  H 3   px      -0.00004
 299  H 3   py       0.00025
 300  H 3   pz       0.00004
 301  H 3   px      -0.00072
 302  H 3   py      -0.00270
 303  H 3   pz       0.00016
 304  H 3   px       0.00273
 305  H 3   py       0.01479
 306  H 3   pz      -0.00288
 307  H 3   px       0.00736
 308  H 3   py       0.06323
 309  H 3   pz       0.00327
 310  H 3   d 1      0.00017
 311  H 3   d 2      0.00028
 312  H 3   d 3      0.00004
 313  H 3   d 4      0.00035
 314  H 3   d 5     -0.00015
 315  H 3   d 1     -0.00132
 316  H 3   d 2     -0.00163
 317  H 3   d 3      0.00025
 318  H 3   d 4     -0.00159
 319  H 3   d 5      0.00117
 320  H 3   d 1     -0.01341
 321  H 3   d 2     -0.01031
 322  H 3   d 3      0.01538
 323  H 3   d 4      0.00313
 324  H 3   d 5      0.01801
 325  H 3   f 1      0.00003
 326  H 3   f 2     -0.00001
 327  H 3   f 3     -0.00003
 328  H 3   f 4      0.00011
 329  H 3   f 5      0.00013
 330  H 3   f 6      0.00020
 331  H 3   f 7      0.00009
 332  H 3   f 1     -0.00151
 333  H 3   f 2      0.00142
 334  H 3   f 3     -0.00200
 335  H 3   f 4     -0.00288
 336  H 3   f 5     -0.00196
 337  H 3   f 6     -0.00341
 338  H 3   f 7     -0.00386
 339  H 3   g 1      0.00024
 340  H 3   g 2      0.00015
 341  H 3   g 3      0.00020
 342  H 3   g 4      0.00028
 343  H 3   g 5     -0.00007
 344  H 3   g 6      0.00011
 345  H 3   g 7     -0.00006
 346  H 3   g 8      0.00013
 347  H 3   g 9      0.00001
 348  H 4   s        0.00025
 349  H 4   s        0.00087
 350  H 4   s       -0.02649
 351  H 4   s       -0.28649
 352  H 4   s        0.22985
 353  H 4   px       0.00067
 354  H 4   py      -0.00078
 355  H 4   pz      -0.00022
 356  H 4   px      -0.00311
 357  H 4   py       0.00321
 358  H 4   pz       0.00146
 359  H 4   px       0.01764
 360  H 4   py      -0.01242
 361  H 4   pz      -0.01382
 362  H 4   px       0.07547
 363  H 4   py      -0.01478
 364  H 4   pz      -0.06083
 365  H 4   d 1     -0.00022
 366  H 4   d 2      0.00008
 367  H 4   d 3      0.00036
 368  H 4   d 4      0.00015
 369  H 4   d 5      0.00018
 370  H 4   d 1     -0.00037
 371  H 4   d 2     -0.00018
 372  H 4   d 3     -0.00195
 373  H 4   d 4     -0.00105
 374  H 4   d 5     -0.00029
 375  H 4   d 1      0.00303
 376  H 4   d 2     -0.00382
 377  H 4   d 3     -0.00010
 378  H 4   d 4      0.01947
 379  H 4   d 5     -0.01118
 380  H 4   f 1      0.00013
 381  H 4   f 2     -0.00011
 382  H 4   f 3      0.00011
 383  H 4   f 4     -0.00009
 384  H 4   f 5      0.00003
 385  H 4   f 6      0.00026
 386  H 4   f 7      0.00003
 387  H 4   f 1     -0.00006
 388  H 4   f 2      0.00098
 389  H 4   f 3     -0.00131
 390  H 4   f 4      0.00096
 391  H 4   f 5      0.00129
 392  H 4   f 6     -0.00316
 393  H 4   f 7      0.00204
 394  H 4   g 1      0.00000
 395  H 4   g 2     -0.00006
 396  H 4   g 3      0.00013
 397  H 4   g 4      0.00001
 398  H 4   g 5      0.00008
 399  H 4   g 6     -0.00008
 400  H 4   g 7     -0.00010
 401  H 4   g 8      0.00017
 402  H 4   g 9     -0.00022
 403  O 3   s        0.00172
 404  O 3   s       -0.03313
 405  O 3   s       -0.00082
 406  O 3   s       -0.01532
 407  O 3   s       -0.09543
 408  O 3   s       -0.45532
 409  O 3   px      -0.01995
 410  O 3   py       0.02147
 411  O 3   pz       0.01671
 412  O 3   px      -0.02848
 413  O 3   py       0.03668
 414  O 3   pz       0.02485
 415  O 3   px      -0.05573
 416  O 3   py       0.04400
 417  O 3   pz       0.04339
 418  O 3   px      -0.17582
 419  O 3   py      -0.06615
 420  O 3   pz       0.08744
 421  O 3   px      -0.04545
 422  O 3   py       0.24345
 423  O 3   pz       0.12809
 424  O 3   d 1     -0.00022
 425  O 3   d 2     -0.00022
 426  O 3   d 3      0.00036
 427  O 3   d 4      0.00033
 428  O 3   d 5      0.00011
 429  O 3   d 1      0.00155
 430  O 3   d 2      0.00141
 431  O 3   d 3     -0.00210
 432  O 3   d 4     -0.00180
 433  O 3   d 5     -0.00122
 434  O 3   d 1     -0.00933
 435  O 3   d 2     -0.00512
 436  O 3   d 3      0.01270
 437  O 3   d 4      0.01241
 438  O 3   d 5      0.00445
 439  O 3   d 1      0.00437
 440  O 3   d 2     -0.00116
 441  O 3   d 3      0.01824
 442  O 3   d 4      0.04845
 443  O 3   d 5     -0.01244
 444  O 3   f 1     -0.00024
 445  O 3   f 2     -0.00001
 446  O 3   f 3     -0.00020
 447  O 3   f 4     -0.00010
 448  O 3   f 5     -0.00004
 449  O 3   f 6     -0.00016
 450  O 3   f 7     -0.00022
 451  O 3   f 1      0.00120
 452  O 3   f 2     -0.00059
 453  O 3   f 3      0.00146
 454  O 3   f 4     -0.00015
 455  O 3   f 5      0.00028
 456  O 3   f 6      0.00076
 457  O 3   f 7      0.00176
 458  O 3   f 1      0.01280
 459  O 3   f 2     -0.01032
 460  O 3   f 3      0.01120
 461  O 3   f 4     -0.01206
 462  O 3   f 5     -0.00105
 463  O 3   f 6      0.01066
 464  O 3   f 7      0.00751
 465  O 3   g 1     -0.00014
 466  O 3   g 2      0.00003
 467  O 3   g 3      0.00001
 468  O 3   g 4      0.00008
 469  O 3   g 5      0.00001
 470  O 3   g 6      0.00008
 471  O 3   g 7      0.00012
 472  O 3   g 8     -0.00015
 473  O 3   g 9      0.00015
 474  O 3   g 1      0.00376
 475  O 3   g 2     -0.00271
 476  O 3   g 3      0.00258
 477  O 3   g 4     -0.00022
 478  O 3   g 5      0.00017
 479  O 3   g 6     -0.00152
 480  O 3   g 7     -0.00232
 481  O 3   g 8      0.00063
 482  O 3   g 9      0.00067
 483  O 3   h 1      0.00028
 484  O 3   h 2     -0.00045
 485  O 3   h 3      0.00035
 486  O 3   h 4     -0.00003
 487  O 3   h 5     -0.00031
 488  O 3   h 6      0.00002
 489  O 3   h 7      0.00023
 490  O 3   h 8     -0.00004
 491  O 3   h 9     -0.00023
 492  O 3   h10     -0.00024
 493  O 3   h11      0.00000
 494  H 5   s        0.00171
 495  H 5   s       -0.00563
 496  H 5   s        0.17122
 497  H 5   s       -0.01288
 498  H 5   s       -0.39112
 499  H 5   px       0.00029
 500  H 5   py       0.00027
 501  H 5   pz       0.00008
 502  H 5   px      -0.00160
 503  H 5   py      -0.00060
 504  H 5   pz       0.00091
 505  H 5   px      -0.03159
 506  H 5   py      -0.04209
 507  H 5   pz      -0.01029
 508  H 5   px      -0.01946
 509  H 5   py      -0.11304
 510  H 5   pz      -0.07967
 511  H 5   d 1     -0.00043
 512  H 5   d 2     -0.00066
 513  H 5   d 3      0.00004
 514  H 5   d 4     -0.00019
 515  H 5   d 5      0.00034
 516  H 5   d 1      0.00892
 517  H 5   d 2      0.00410
 518  H 5   d 3     -0.00397
 519  H 5   d 4      0.00167
 520  H 5   d 5     -0.00308
 521  H 5   d 1      0.00090
 522  H 5   d 2      0.00879
 523  H 5   d 3     -0.00364
 524  H 5   d 4      0.00231
 525  H 5   d 5      0.00602
 526  H 5   f 1     -0.00020
 527  H 5   f 2     -0.00003
 528  H 5   f 3      0.00064
 529  H 5   f 4      0.00002
 530  H 5   f 5      0.00042
 531  H 5   f 6     -0.00026
 532  H 5   f 7      0.00098
 533  H 5   f 1     -0.00164
 534  H 5   f 2     -0.00271
 535  H 5   f 3     -0.00110
 536  H 5   f 4      0.00327
 537  H 5   f 5      0.00011
 538  H 5   f 6      0.00304
 539  H 5   f 7     -0.00039
 540  H 5   g 1      0.00000
 541  H 5   g 2      0.00010
 542  H 5   g 3     -0.00008
 543  H 5   g 4     -0.00026
 544  H 5   g 5      0.00004
 545  H 5   g 6     -0.00023
 546  H 5   g 7     -0.00004
 547  H 5   g 8     -0.00012
 548  H 5   g 9     -0.00027
 549  H 6   s        0.00323
 550  H 6   s       -0.00052
 551  H 6   s        0.23451
 552  H 6   s       -0.22517
 553  H 6   s        1.25142
 554  H 6   px       0.00251
 555  H 6   py      -0.00143
 556  H 6   pz      -0.00194
 557  H 6   px      -0.00719
 558  H 6   py       0.00203
 559  H 6   pz       0.00473
 560  H 6   px       0.01517
 561  H 6   py       0.02612
 562  H 6   pz       0.00051
 563  H 6   px       0.02618
 564  H 6   py      -0.04090
 565  H 6   pz      -0.03380
 566  H 6   d 1      0.00020
 567  H 6   d 2     -0.00059
 568  H 6   d 3      0.00025
 569  H 6   d 4      0.00015
 570  H 6   d 5      0.00061
 571  H 6   d 1     -0.00491
 572  H 6   d 2      0.00699
 573  H 6   d 3     -0.00179
 574  H 6   d 4     -0.00322
 575  H 6   d 5     -0.00444
 576  H 6   d 1      0.00982
 577  H 6   d 2     -0.01140
 578  H 6   d 3      0.00354
 579  H 6   d 4      0.02154
 580  H 6   d 5     -0.00989
 581  H 6   f 1      0.00010
 582  H 6   f 2     -0.00092
 583  H 6   f 3      0.00010
 584  H 6   f 4     -0.00076
 585  H 6   f 5     -0.00018
 586  H 6   f 6     -0.00033
 587  H 6   f 7      0.00033
 588  H 6   f 1     -0.00172
 589  H 6   f 2      0.00297
 590  H 6   f 3     -0.00025
 591  H 6   f 4      0.00313
 592  H 6   f 5      0.00167
 593  H 6   f 6     -0.00235
 594  H 6   f 7      0.00190
 595  H 6   g 1      0.00021
 596  H 6   g 2     -0.00012
 597  H 6   g 3      0.00007
 598  H 6   g 4      0.00001
 599  H 6   g 5      0.00006
 600  H 6   g 6     -0.00002
 601  H 6   g 7     -0.00016
 602  H 6   g 8      0.00024
 603  H 6   g 9     -0.00007
 604  O 4   s       -0.00001
 605  O 4   s        0.00172
 606  O 4   s       -0.00120
 607  O 4   s       -0.00696
 608  O 4   s        0.21028
 609  O 4   s        0.38294
 610  O 4   px      -0.00875
 611  O 4   py      -0.02414
 612  O 4   pz       0.01800
 613  O 4   px      -0.01719
 614  O 4   py      -0.03820
 615  O 4   pz       0.03041
 616  O 4   px       0.00808
 617  O 4   py      -0.07048
 618  O 4   pz       0.03319
 619  O 4   px       0.07168
 620  O 4   py      -0.09096
 621  O 4   pz       0.00691
 622  O 4   px       0.13985
 623  O 4   py      -0.23451
 624  O 4   pz      -0.00236
 625  O 4   d 1      0.00002
 626  O 4   d 2      0.00022
 627  O 4   d 3      0.00026
 628  O 4   d 4      0.00034
 629  O 4   d 5      0.00016
 630  O 4   d 1      0.00001
 631  O 4   d 2     -0.00042
 632  O 4   d 3     -0.00157
 633  O 4   d 4     -0.00091
 634  O 4   d 5     -0.00081
 635  O 4   d 1     -0.00602
 636  O 4   d 2      0.00266
 637  O 4   d 3     -0.00522
 638  O 4   d 4      0.00042
 639  O 4   d 5     -0.00301
 640  O 4   d 1     -0.04904
 641  O 4   d 2      0.01983
 642  O 4   d 3     -0.02295
 643  O 4   d 4     -0.00586
 644  O 4   d 5      0.00883
 645  O 4   f 1      0.00011
 646  O 4   f 2      0.00003
 647  O 4   f 3     -0.00000
 648  O 4   f 4     -0.00011
 649  O 4   f 5      0.00004
 650  O 4   f 6     -0.00008
 651  O 4   f 7      0.00021
 652  O 4   f 1      0.00016
 653  O 4   f 2     -0.00019
 654  O 4   f 3      0.00087
 655  O 4   f 4      0.00071
 656  O 4   f 5     -0.00073
 657  O 4   f 6      0.00038
 658  O 4   f 7     -0.00235
 659  O 4   f 1     -0.01478
 660  O 4   f 2      0.01031
 661  O 4   f 3     -0.00078
 662  O 4   f 4     -0.00235
 663  O 4   f 5     -0.00381
 664  O 4   f 6      0.00116
 665  O 4   f 7     -0.00005
 666  O 4   g 1      0.00027
 667  O 4   g 2     -0.00020
 668  O 4   g 3      0.00007
 669  O 4   g 4      0.00001
 670  O 4   g 5      0.00003
 671  O 4   g 6      0.00005
 672  O 4   g 7      0.00013
 673  O 4   g 8      0.00005
 674  O 4   g 9      0.00001
 675  O 4   g 1     -0.00128
 676  O 4   g 2      0.00204
 677  O 4   g 3     -0.00006
 678  O 4   g 4     -0.00054
 679  O 4   g 5      0.00048
 680  O 4   g 6     -0.00037
 681  O 4   g 7     -0.00063
 682  O 4   g 8     -0.00026
 683  O 4   g 9     -0.00062
 684  O 4   h 1      0.00022
 685  O 4   h 2      0.00013
 686  O 4   h 3     -0.00000
 687  O 4   h 4     -0.00016
 688  O 4   h 5      0.00011
 689  O 4   h 6      0.00003
 690  O 4   h 7      0.00012
 691  O 4   h 8     -0.00002
 692  O 4   h 9      0.00006
 693  O 4   h10     -0.00017
 694  O 4   h11      0.00005
 695  H 7   s       -0.00100
 696  H 7   s        0.01330
 697  H 7   s       -0.11222
 698  H 7   s       -0.39885
 699  H 7   s       -0.29088
 700  H 7   px      -0.00021
 701  H 7   py       0.00059
 702  H 7   pz      -0.00034
 703  H 7   px      -0.00159
 704  H 7   py       0.00384
 705  H 7   pz       0.00197
 706  H 7   px       0.00026
 707  H 7   py      -0.04382
 708  H 7   pz      -0.00512
 709  H 7   px       0.02168
 710  H 7   py      -0.12745
 711  H 7   pz       0.01010
 712  H 7   d 1     -0.00030
 713  H 7   d 2     -0.00012
 714  H 7   d 3     -0.00058
 715  H 7   d 4     -0.00042
 716  H 7   d 5     -0.00084
 717  H 7   d 1      0.00126
 718  H 7   d 2      0.00122
 719  H 7   d 3      0.00376
 720  H 7   d 4      0.00153
 721  H 7   d 5      0.00680
 722  H 7   d 1      0.00935
 723  H 7   d 2     -0.00211
 724  H 7   d 3      0.01430
 725  H 7   d 4     -0.00729
 726  H 7   d 5      0.03095
 727  H 7   f 1      0.00003
 728  H 7   f 2      0.00022
 729  H 7   f 3      0.00010
 730  H 7   f 4      0.00000
 731  H 7   f 5      0.00002
 732  H 7   f 6      0.00005
 733  H 7   f 7      0.00005
 734  H 7   f 1      0.00597
 735  H 7   f 2     -0.00117
 736  H 7   f 3      0.00443
 737  H 7   f 4      0.00040
 738  H 7   f 5     -0.00090
 739  H 7   f 6     -0.00003
 740  H 7   f 7     -0.00423
 741  H 7   g 1     -0.00038
 742  H 7   g 2     -0.00000
 743  H 7   g 3     -0.00014
 744  H 7   g 4      0.00007
 745  H 7   g 5     -0.00020
 746  H 7   g 6     -0.00002
 747  H 7   g 7     -0.00030
 748  H 7   g 8      0.00002
 749  H 7   g 9     -0.00030
 750  H 8   s        0.00065
 751  H 8   s        0.00607
 752  H 8   s        0.05379
 753  H 8   s       -0.40036
 754  H 8   s        0.80415
 755  H 8   px       0.00150
 756  H 8   py       0.00133
 757  H 8   pz      -0.00072
 758  H 8   px      -0.00443
 759  H 8   py      -0.00435
 760  H 8   pz       0.00275
 761  H 8   px       0.03115
 762  H 8   py       0.01916
 763  H 8   pz      -0.01651
 764  H 8   px       0.05659
 765  H 8   py       0.10872
 766  H 8   pz      -0.05616
 767  H 8   d 1     -0.00009
 768  H 8   d 2      0.00015
 769  H 8   d 3     -0.00027
 770  H 8   d 4     -0.00051
 771  H 8   d 5      0.00023
 772  H 8   d 1      0.00037
 773  H 8   d 2     -0.00122
 774  H 8   d 3      0.00095
 775  H 8   d 4      0.00275
 776  H 8   d 5     -0.00289
 777  H 8   d 1     -0.02572
 778  H 8   d 2      0.02296
 779  H 8   d 3      0.00751
 780  H 8   d 4      0.01571
 781  H 8   d 5      0.00505
 782  H 8   f 1      0.00028
 783  H 8   f 2      0.00019
 784  H 8   f 3      0.00008
 785  H 8   f 4     -0.00039
 786  H 8   f 5      0.00007
 787  H 8   f 6     -0.00019
 788  H 8   f 7      0.00028
 789  H 8   f 1      0.00168
 790  H 8   f 2     -0.00504
 791  H 8   f 3     -0.00032
 792  H 8   f 4      0.00465
 793  H 8   f 5     -0.00021
 794  H 8   f 6      0.00002
 795  H 8   f 7     -0.00236
 796  H 8   g 1     -0.00008
 797  H 8   g 2      0.00024
 798  H 8   g 3     -0.00009
 799  H 8   g 4     -0.00019
 800  H 8   g 5      0.00008
 801  H 8   g 6     -0.00015
 802  H 8   g 7      0.00001
 803  H 8   g 8     -0.00023
 804  H 8   g 9      0.00020

          Ground-State Mulliken Net Atomic Charges

     Atom                 Charge (a.u.)
  ----------------------------------------
      1 O                    -0.692633
      2 H                     0.352337
      3 H                     0.353683
      4 O                    -0.565401
      5 H                     0.280750
      6 H                     0.300462
      7 O                    -0.609221
      8 H                     0.338214
      9 H                     0.242217
     10 O                    -0.599520
     11 H                     0.307933
     12 H                     0.291179
  ----------------------------------------
  Sum of atomic charges =     0.000000

 -----------------------------------------------------------------
                    Cartesian Multipole Moments
 -----------------------------------------------------------------
    Charge (ESU x 10^10)
                -0.0000
    Dipole Moment (Debye)
         X       5.4197      Y       3.8904      Z      -1.2659
       Tot       6.7905
    Quadrupole Moments (Debye-Ang)
        XX     -23.4170     XY       2.1101     YY     -27.9015
        XZ      -1.7168     YZ       5.0823     ZZ     -26.0988
    Octopole Moments (Debye-Ang^2)
       XXX      28.3862    XXY      15.7705    XYY      38.7231
       YYY      36.0845    XXZ      11.2558    XYZ       2.0778
       YYZ     -10.1700    XZZ       5.1282    YZZ       9.9547
       ZZZ      -3.7633
    Hexadecapole Moments (Debye-Ang^3)
      XXXX    -167.1411   XXXY     -31.6506   XXYY    -155.1317
      XYYY     -87.7337   YYYY    -630.6636   XXXZ     -56.9996
      XXYZ      32.9475   XYYZ      -8.7787   YYYZ      80.7521
      XXZZ     -68.7978   XYZZ      -9.9365   YYZZ    -116.9912
      XZZZ     -64.6270   YZZZ      32.4693   ZZZZ    -173.6485
 -----------------------------------------------------------------
 Total job time:  909.64s(wall), 28636.07s(cpu) 
 Tue Dec 17 21:48:52 2024

        *************************************************************
        *                                                           *
        *  Thank you very much for using Q-Chem.  Have a nice day.  *
        *                                                           *
        *************************************************************


