                  Welcome to Q-Chem
     A Quantum Leap Into The Future Of Chemistry


 Q-Chem 6.2 (devel), Q-Chem, Inc., Pleasanton, CA (2024)

 E. Epifanovsky,  A. T. B. Gilbert,  Xintian Feng,  Joonho Lee,  Yuezhi Mao,  
 N. Mardirossian,  P. Pokhilko,  A. White,  M. Wormit,  M. P. Coons,  
 A. L. Dempwolff,  Zhengting Gan,  D. Hait,  P. R. Horn,  L. D. Jacobson,  
 I. Kaliman,  J. Kussmann,  A. W. Lange,  Ka Un Lao,  D. S. Levine,  Jie Liu,  
 S. C. McKenzie,  A. F. Morrison,  K. D. Nanda,  F. Plasser,  D. R. Rehn,  
 M. L. Vidal,  Zhi-Qiang You,  Ying Zhu,  Huseyin Aksu,  B. Alam,  
 B. Albrecht,  A. Aldossary,  E. Alguire,  J. H. Andersen,  
 J. E. Arias-Martinez,  V. Athavale,  D. Barton,  K. Begam,  A. Behn,  
 N. Bellonzi,  Y. A. Bernard,  E. J. Berquist,  H. Burton,  A. Carreras,  
 K. Carter-Fenk,  Mathew Chow,  Romit Chakraborty,  Chandrima Chakravarty,  
 Junhan Chen,  A. D. Chien,  K. D. Closser,  V. Cofer-Shabica,  L. Cunha,  
 S. Dasgupta,  Jia Deng,  Joseph Dickinson,  M. de Wergifosse,  
 M. Diedenhofen,  Hainam Do,  Wenjie Dou,  S. Ehlert,  Po-Tung Fang,  
 S. Fatehi,  Qingguo Feng,  Jonathan Fetherolf,  T. Friedhoff,  
 Thomas Froitzheim,  Sarai Folkestad,  B. Ganoe,  J. Gayvert,  Qinghui Ge,  
 G. Gidofalvi,  M. Gimferrer,  M. Goldey,  Montgomery Gray,  J. Gomes,  
 C. Gonzalez-Espinoza,  S. Gulania,  A. Gunina,  J. A. Gyamfi,  
 M. W. D. Hanson-Heine,  P. H. P. Harbach,  A. W. Hauser,  M. F. Herbst,  
 M. Hernandez Vera,  M. Hodecker,  Z. C. Holden,  S. Houck,  Xunkun Huang,  
 Kerwin Hui,  B. C. Huynh,  K. Ikeda,  M. Ivanov,  Nayanthara K. Jayadev,  
 Hyunjun Ji,  Zuxin Jin,  Hanjie Jiang,  Subrata Jana,  B. Kaduk,  
 S. Kaehler,  R. Kang,  K. Khistyaev,  Jaehoon Kim,  Yongbin Kim,  
 P. Klunzinger,  Z. Koczor-Benda,  Joong Hoon Koh,  D. Kosenkov,  
 Saikiran Kotaru,  L. Koulias,  T. Kowalczyk,  C. M. Krauter,  K. Kue,  
 A. Kunitsa,  T. Kus,  A. Landau,  K. V. Lawler,  D. Lefrancois,  S. Lehtola,  
 Rain Li,  Shaozhi Li,  Tao E. Li,  Yi-Pei Li,  Jiashu Liang,  M. Liebenthal,  
 Hung-Hsuan Lin,  You-Sheng Lin,  Fenglai Liu,  Kuan-Yu Liu,  Xiao Liu,  
 M. Loipersberger,  A. Luenser,  C. Malbon,  Aniket Mandal,  Manisha,  
 A. Manjanath,  P. Manohar,  E. Mansoor,  S. F. Manzer,  Shan-Ping Mao,  
 A. V. Marenich,  T. Markovich,  S. Mason,  F. Matz,  S. A. Maurer,  
 Samuel May,  Alexandra McIsaac,  P. F. McLaughlin,  M. F. S. J. Menger,  
 J.-M. Mewes,  S. A. Mewes,  P. Morgante,  Mohammad Mostafanejad,  
 Madhubani Mukherjee,  J. W. Mullinax,  Quyen Nguyen,  Avik Kumar Ojha,  
 K. J. Oosterbaan,  Eno Paenurk,  Xiaoliang Pan,  G. Paran,  V. Parravicini,  
 Alexander C. Paul,  Suranjan K. Paul,  F. Pavosevic,  Zheng Pei,  S. Prager,  
 E. I. Proynov,  E. Ramos,  B. Rana,  A. E. Rask,  A. Rettig,  R. M. Richard,  
 F. Rob,  E. Rossomme,  T. Scheele,  M. Scheurer,  M. Schneider,  
 P. E. Schneider,  Tim K. Schramm,  N. Sergueev,  S. M. Sharada,  
 Hengyuan Shen,  W. Skomorowski,  D. W. Small,  C. J. Stein,  
 Alistair J. Sterling,  Yingli Su,  Yu-Chuan Su,  E. J. Sundstrom,  
 J. Talbot,  Zhen Tao,  J. Thirman,  Hung-Yi Tsai,  T. Tsuchimochi,  
 N. M. Tubman,  C. Utku,  S. P. Veccham,  O. Vydrov,  Rahel Weiss,  
 J. Wenzel,  Jonathan Wong,  J. Witte,  H. Wu,  Yanze Wu,  A. Yamada,  
 Chou-Hsun Yang,  Kun Yao,  S. Yeganeh,  S. R. Yost,  Qi Yu,  A. Zech,  
 F. Zeller,  Chongxiao Zhao,  Igor Ying Zhang,  Xing Zhang,  Yu Zhang,  
 D. Zuev,  A. Aspuru-Guzik,  A. T. Bell,  N. A. Besley,  K. B. Bravaya,  
 B. R. Brooks,  D. Casanova,  Jeng-Da Chai,  Hsing-Ta Chen,  S. Coriani,  
 C. J. Cramer,  A. E. DePrince, III,  R. A. DiStasio Jr.,  A. Dreuw,  
 B. D. Dunietz,  T. R. Furlani,  W. A. Goddard III,  S. Grimme,  
 S. Hammes-Schiffer,  T. Head-Gordon,  W. J. Hehre,  Chao-Ping Hsu,  
 T.-C. Jagau,  Yousung Jung,  A. Klamt,  Jing Kong,  D. S. Lambrecht,  
 Xiangyuan Li,  WanZhen Liang,  N. J. Mayhall,  C. W. McCurdy,  J. B. Neaton,  
 T. Neudecker,  C. Ochsenfeld,  J. A. Parkhill,  R. Peverati,  
 V. A. Rassolov,  Haisheng Ren,  Yihan Shao,  L. V. Slipchenko,  
 R. P. Steele,  J. E. Subotnik,  A. J. W. Thom,  A. Tkatchenko,  
 D. G. Truhlar,  T. Van Voorhis,  Fan Wang,  T. A. Wesolowski,  K. B. Whaley,  
 H. L. Woodcock III,  P. M. Zimmerman,  S. Faraji,  P. M. W. Gill,  
 M. Head-Gordon,  J. M. Herbert,  A. I. Krylov

 Contributors to earlier versions of Q-Chem not listed above: 
 R. D. Adamson,  B. Austin,  R. Baer,  J. Baker,  G. J. O. Beran,  
 K. Brandhorst,  S. T. Brown,  E. F. C. Byrd,  Arup K. Chakraborty,  
 G. K. L. Chan,  Chun-Min Chang,  Yunqing Chen,  C.-L. Cheng,  
 Siu Hung Chien,  D. M. Chipman,  D. L. Crittenden,  H. Dachsel,  
 R. J. Doerksen,  A. D. Dutoi,  R. G. Edgar,  J. Fosso-Tande,  
 L. Fusti-Molnar,  D. Ghosh,  A. Ghysels,  A. Golubeva-Zadorozhnaya,  
 J. Gonthier,  M. S. Gordon,  S. R. Gwaltney,  G. Hawkins,  J. E. Herr,  
 A. Heyden,  S. Hirata,  E. G. Hohenstein,  G. Kedziora,  F. J. Keil,  
 C. Kelley,  Jihan Kim,  R. A. King,  R. Z. Khaliullin,  P. P. Korambath,  
 W. Kurlancheek,  A. Laurent,  A. M. Lee,  M. S. Lee,  S. V. Levchenko,  
 Ching Yeh Lin,  D. Liotard,  E. Livshits,  R. C. Lochan,  I. Lotan,  
 L. A. Martinez-Martinez,  P. E. Maslen,  N. Nair,  D. P. O'Neill,  
 D. Neuhauser,  E. Neuscamman,  C. M. Oana,  R. Olivares-Amaya,  R. Olson,  
 T. M. Perrine,  B. Peters,  P. A. Pieniazek,  A. Prociuk,  Y. M. Rhee,  
 J. Ritchie,  M. A. Rohrdanz,  E. Rosta,  N. J. Russ,  H. F. Schaefer III,  
 M. W. Schmidt,  N. E. Schultz,  S. Sharma,  N. Shenvi,  C. D. Sherrill,  
 A. C. Simmonett,  A. Sodt,  T. Stein,  D. Stuck,  K. S. Thanthiriwatte,  
 V. Vanovschi,  L. Vogt,  Tao Wang,  A. Warshel,  M. A. Watson,  
 C. F. Williams,  Q. Wu,  X. Xu,  Jun Yang,  W. Zhang,  Yan Zhao

   Please cite Q-Chem as follows:
  "Software for the frontiers of quantum chemistry:
   An overview of developments in the Q-Chem 5 package"
   J. Chem. Phys. 155, 084801 (2021)
   https://doi.org/10.1063/5.0055522 (open access)

 Q-Chem 6.2.2 for Intel X86 EM64T Linux

 Parts of Q-Chem use Armadillo 9.900.5 (Nocturnal Misbehaviour).
 http://arma.sourceforge.net/

 Q-Chem begins on Mon Dec 30 14:37:15 2024  

 Host: compute-0-8.local
0

     Scratch files written to /scratch/keith/A1D1_1//
 Processing $rem in /home/keith/software/qchem/qchem_622/config/preferences:
 Processing $rem in /home/keith/.qchemrc:

 Checking the input file for inconsistencies... 	...done.

--------------------------------------------------------------
User input:
--------------------------------------------------------------
$molecule
read
$end

$rem
method                    b3lyp 
basis                     cc-pv5z 
mem_total                 63000
mem_static                8000
thresh                    12
scf_convergence           8
xc_grid                   000075000302
max_scf_cycles            2000
symmetry                  false
sym_ignore                true
scf_guess                 read
skip_scfman               true
cis_n_roots               150
cis_triplets              false
rpa                       false 
trnss                     true
trtype                    3
n_sol                     1
nto_pairs                 2
gui                       2
print_orbitals            true
state_analysis            true
$end

$solute 
3 
$end
--------------------------------------------------------------
 ----------------------------------------------------------------
             Standard Nuclear Orientation (Angstroms)
    I     Atom           X                Y                Z
 ----------------------------------------------------------------
    1      O       0.0863000000    -0.6499900000     0.8785400000
    2      H       0.7174000000     0.0081100000     0.7555400000
    3      H      -0.6875000000    -0.0931900000     0.8125400000
    4      O       1.6369000000     1.7740100000     0.7255400000
    5      H       1.9941000000     2.5297100000     1.1665400000
    6      H       2.3981400000     1.3661100000     0.3125400000
    7      O      -0.8191000000    -3.0827100000    -0.0624600000
    8      H      -0.3097000000    -2.2252300000     0.0225400000
    9      H      -0.1862000000    -3.5805800000    -0.5894600000
   10      O      -1.0797000000     1.8633100000    -1.4804600000
   11      H      -0.6661000000     0.9922100000    -1.5704600000
   12      H      -0.4732000000     2.5171100000    -1.8804600000
 ----------------------------------------------------------------
 Nuclear Repulsion Energy =         124.21102100 hartrees
 There are       20 alpha and       20 beta electrons
 Requested basis set is cc-pV5Z
 There are 204 shells and 804 basis functions

 Total QAlloc Memory Limit  63000 MB
 Mega-Array Size      7821 MB
 MEM_STATIC part      8000 MB


                       Distance Matrix (Angstroms)
             O (  1)   H (  2)   H (  3)   O (  4)   H (  5)   H (  6)
   H (  2)  0.920061
   H (  3)  0.955588  1.409700
   O (  4)  2.881587  1.991176  2.982757
   H (  5)  3.719293  2.856108  3.767745  0.945069
   H (  6)  3.119234  2.205742  3.449744  0.957308  1.498843
   O (  7)  2.761043  3.547270  3.117719  5.499146  6.397171  5.503023
   H (  8)  1.836010  2.565157  2.304870  4.503041  5.406079  4.507130
   H (  9)  3.289018  3.937539  3.791938  5.807284  6.721078  5.653509
   O ( 10)  3.638834  3.416289  3.039665  3.500618  4.110833  3.944291
   H ( 11)  3.043111  2.879722  2.618633  3.344643  4.114819  3.615945
   H ( 12)  4.237410  3.828982  3.756573  3.434524  3.920706  3.791918
             O (  7)   H (  8)   H (  9)   O ( 10)   H ( 11)
   H (  8)  1.000992
   H (  9)  0.962375  1.492237
   O ( 10)  5.151869  4.423581  5.588216
   H ( 11)  4.347694  3.607851  4.701391  0.968494
   H ( 12)  5.897691  5.112527  6.239461  0.977393  1.568002

 A cutoff of  1.0D-12 yielded  14557 shell pairs
 There are    200687 function pairs (    337044 Cartesian)
 Smallest overlap matrix eigenvalue = 2.84E-05

 Scale SEOQF with 1.000000e-01/1.000000e-01/1.000000e-01

 Standard Electronic Orientation quadrupole field applied
 Nucleus-field energy     =     0.0000000096 hartrees
 Guess MOs from SCF MO coefficient file
 Reading MOs from coefficient file
 Reading MOs from coefficient file
 Skipping gen_scfman as requested.
 MAX_CIS_SUBSPACE fits in available memory
 Direct TDDFT/TDA calculation will be performed
 Exchange:     0.2000 Hartree-Fock + 0.0800 Slater + 0.7200 B88
 Correlation:  0.1900 VWN1RPA + 0.8100 LYP
 Using Euler-Maclaurin-Lebedev (75,302) quadrature formula
 Singlet excitation energies requested
 CIS energy converged when residual is below 10e- 6
   
 ***Using a Restricted Set of Single Excitations***
   
 RCIS calculation
   
 Excitations from specified occupied orbitals
 -------------------------------------------------------------
              Orbitals in Truncated CIS space
 -------------------------------------------------------------
     3  21  22  23  24  25  26  27  28  29  30  31  32  33  34
    35  36  37  38  39  40  41  42  43  44  45  46  47  48  49
    50  51  52  53  54  55  56  57  58  59  60  61  62  63  64
    65  66  67  68  69  70  71  72  73  74  75  76  77  78  79
    80  81  82  83  84  85  86  87  88  89  90  91  92  93  94
    95  96  97  98  99 100 101 102 103 104 105 106 107 108 109
   110 111 112 113 114 115 116 117 118 119 120 121 122 123 124
   125 126 127 128 129 130 131 132 133 134 135 136 137 138 139
   140 141 142 143 144 145 146 147 148 149 150 151 152 153 154
   155 156 157 158 159 160 161 162 163 164 165 166 167 168 169
   170 171 172 173 174 175 176 177 178 179 180 181 182 183 184
   185 186 187 188 189 190 191 192 193 194 195 196 197 198 199
   200 201 202 203 204 205 206 207 208 209 210 211 212 213 214
   215 216 217 218 219 220 221 222 223 224 225 226 227 228 229
   230 231 232 233 234 235 236 237 238 239 240 241 242 243 244
   245 246 247 248 249 250 251 252 253 254 255 256 257 258 259
   260 261 262 263 264 265 266 267 268 269 270 271 272 273 274
   275 276 277 278 279 280 281 282 283 284 285 286 287 288 289
   290 291 292 293 294 295 296 297 298 299 300 301 302 303 304
   305 306 307 308 309 310 311 312 313 314 315 316 317 318 319
   320 321 322 323 324 325 326 327 328 329 330 331 332 333 334
   335 336 337 338 339 340 341 342 343 344 345 346 347 348 349
   350 351 352 353 354 355 356 357 358 359 360 361 362 363 364
   365 366 367 368 369 370 371 372 373 374 375 376 377 378 379
   380 381 382 383 384 385 386 387 388 389 390 391 392 393 394
   395 396 397 398 399 400 401 402 403 404 405 406 407 408 409
   410 411 412 413 414 415 416 417 418 419 420 421 422 423 424
   425 426 427 428 429 430 431 432 433 434 435 436 437 438 439
   440 441 442 443 444 445 446 447 448 449 450 451 452 453 454
   455 456 457 458 459 460 461 462 463 464 465 466 467 468 469
   470 471 472 473 474 475 476 477 478 479 480 481 482 483 484
   485 486 487 488 489 490 491 492 493 494 495 496 497 498 499
   500 501 502 503 504 505 506 507 508 509 510 511 512 513 514
   515 516 517 518 519 520 521 522 523 524 525 526 527 528 529
   530 531 532 533 534 535 536 537 538 539 540 541 542 543 544
   545 546 547 548 549 550 551 552 553 554 555 556 557 558 559
   560 561 562 563 564 565 566 567 568 569 570 571 572 573 574
   575 576 577 578 579 580 581 582 583 584 585 586 587 588 589
   590 591 592 593 594 595 596 597 598 599 600 601 602 603 604
   605 606 607 608 609 610 611 612 613 614 615 616 617 618 619
   620 621 622 623 624 625 626 627 628 629 630 631 632 633 634
   635 636 637 638 639 640 641 642 643 644 645 646 647 648 649
   650 651 652 653 654 655 656 657 658 659 660 661 662 663 664
   665 666 667 668 669 670 671 672 673 674 675 676 677 678 679
   680 681 682 683 684 685 686 687 688 689 690 691 692 693 694
   695 696 697 698 699 700 701 702 703 704 705 706 707 708 709
   710 711 712 713 714 715 716 717 718 719 720 721 722 723 724
   725 726 727 728 729 730 731 732 733 734 735 736 737 738 739
   740 741 742 743 744 745 746 747 748 749 750 751 752 753 754
   755 756 757 758 759 760 761 762 763 764 765 766 767 768 769
   770 771 772 773 774 775 776 777 778 779 780 781 782 783 784
   785 786 787 788 789 790 791 792 793 794 795 796 797 798 799
   800 801 802 803 804
   
    Number of Occupied Orbitals =    1  out of    20
    Number of Virtual Orbitals  =  784  out of   784
 -------------------------------------------------------------
 Number of Roots adjusted to:         150
 ---------------------------------------------------
 Iter    Rts Conv    Rts Left    Ttl Dev     Max Dev
 ---------------------------------------------------
   1         0         150      0.027465    0.000501
   2        55          95      0.017230    0.000289
   3       147           3      0.017148    0.000283
   4       150           0      0.017148    0.000283    Roots Converged
 ---------------------------------------------------

 ---------------------------------------------------
         TDDFT/TDA Excitation Energies              
 ---------------------------------------------------

 Excited state   1: excitation energy (eV) =     518.6872
 Total energy for state   1:                  -286.83669299 au
    Multiplicity: Singlet
    Trans. Mom.: -0.0008 X   0.0127 Y  -0.0076 Z
    Strength   :     0.0028085312
    D(    3) --> V(    1) amplitude =  0.9766

 Excited state   2: excitation energy (eV) =     519.7509
 Total energy for state   2:                  -286.79760421 au
    Multiplicity: Singlet
    Trans. Mom.:  0.0165 X  -0.0031 Y   0.0079 Z
    Strength   :     0.0043971805
    D(    3) --> V(    2) amplitude =  0.9396

 Excited state   3: excitation energy (eV) =     520.4222
 Total energy for state   3:                  -286.77293360 au
    Multiplicity: Singlet
    Trans. Mom.: -0.0019 X   0.0006 Y  -0.0001 Z
    Strength   :     0.0000503854
    D(    3) --> V(    2) amplitude =  0.2378
    D(    3) --> V(    3) amplitude =  0.9471

 Excited state   4: excitation energy (eV) =     520.7113
 Total energy for state   4:                  -286.76230871 au
    Multiplicity: Singlet
    Trans. Mom.:  0.0219 X  -0.0172 Y  -0.0087 Z
    Strength   :     0.0108646585
    D(    3) --> V(    4) amplitude = -0.5559
    D(    3) --> V(    5) amplitude =  0.6851
    D(    3) --> V(    6) amplitude = -0.3335

 Excited state   5: excitation energy (eV) =     521.0419
 Total energy for state   5:                  -286.75016050 au
    Multiplicity: Singlet
    Trans. Mom.:  0.0035 X  -0.0096 Y  -0.0001 Z
    Strength   :     0.0013377303
    D(    3) --> V(    4) amplitude =  0.8089
    D(    3) --> V(    5) amplitude =  0.5635

 Excited state   6: excitation energy (eV) =     521.6518
 Total energy for state   6:                  -286.72774652 au
    Multiplicity: Singlet
    Trans. Mom.: -0.0095 X  -0.0002 Y   0.0126 Z
    Strength   :     0.0032015615
    D(    3) --> V(    5) amplitude =  0.3633
    D(    3) --> V(    6) amplitude =  0.9105

 Excited state   7: excitation energy (eV) =     522.2932
 Total energy for state   7:                  -286.70417740 au
    Multiplicity: Singlet
    Trans. Mom.: -0.0247 X  -0.0034 Y  -0.0037 Z
    Strength   :     0.0081406524
    D(    3) --> V(    7) amplitude =  0.9702

 Excited state   8: excitation energy (eV) =     523.5290
 Total energy for state   8:                  -286.65876217 au
    Multiplicity: Singlet
    Trans. Mom.: -0.0071 X  -0.0245 Y  -0.0044 Z
    Strength   :     0.0086174287
    D(    3) --> V(    8) amplitude =  0.9713

 Excited state   9: excitation energy (eV) =     524.2090
 Total energy for state   9:                  -286.63377078 au
    Multiplicity: Singlet
    Trans. Mom.: -0.0080 X  -0.0132 Y   0.0203 Z
    Strength   :     0.0083269215
    D(    3) --> V(    9) amplitude =  0.9592

 Excited state  10: excitation energy (eV) =     524.4809
 Total energy for state  10:                  -286.62378095 au
    Multiplicity: Singlet
    Trans. Mom.: -0.0142 X   0.0028 Y  -0.0202 Z
    Strength   :     0.0079360634
    D(    3) --> V(   10) amplitude =  0.7799
    D(    3) --> V(   11) amplitude = -0.4996
    D(    3) --> V(   13) amplitude = -0.2330

 Excited state  11: excitation energy (eV) =     524.9144
 Total energy for state  11:                  -286.60784802 au
    Multiplicity: Singlet
    Trans. Mom.:  0.0117 X  -0.0061 Y  -0.0013 Z
    Strength   :     0.0022693501
    D(    3) --> V(   10) amplitude =  0.5676
    D(    3) --> V(   11) amplitude =  0.7170
    D(    3) --> V(   13) amplitude =  0.2654

 Excited state  12: excitation energy (eV) =     525.4916
 Total energy for state  12:                  -286.58663733 au
    Multiplicity: Singlet
    Trans. Mom.:  0.0080 X  -0.0005 Y  -0.0074 Z
    Strength   :     0.0015441982
    D(    3) --> V(   12) amplitude =  0.9156
    D(    3) --> V(   13) amplitude = -0.3041

 Excited state  13: excitation energy (eV) =     525.6150
 Total energy for state  13:                  -286.58210210 au
    Multiplicity: Singlet
    Trans. Mom.:  0.0057 X  -0.0003 Y  -0.0021 Z
    Strength   :     0.0004813095
    D(    3) --> V(   11) amplitude = -0.4214
    D(    3) --> V(   12) amplitude =  0.2427
    D(    3) --> V(   13) amplitude =  0.8219
    D(    3) --> V(   14) amplitude = -0.2303

 Excited state  14: excitation energy (eV) =     525.7580
 Total energy for state  14:                  -286.57684637 au
    Multiplicity: Singlet
    Trans. Mom.: -0.0048 X  -0.0119 Y   0.0122 Z
    Strength   :     0.0040356803
    D(    3) --> V(   14) amplitude =  0.8029
    D(    3) --> V(   15) amplitude = -0.2623
    D(    3) --> V(   16) amplitude =  0.3212

 Excited state  15: excitation energy (eV) =     526.3425
 Total energy for state  15:                  -286.55536681 au
    Multiplicity: Singlet
    Trans. Mom.:  0.0055 X  -0.0035 Y   0.0003 Z
    Strength   :     0.0005468282
    D(    3) --> V(   15) amplitude =  0.9338

 Excited state  16: excitation energy (eV) =     526.4066
 Total energy for state  16:                  -286.55300928 au
    Multiplicity: Singlet
    Trans. Mom.: -0.0152 X  -0.0019 Y   0.0003 Z
    Strength   :     0.0030343098
    D(    3) --> V(   14) amplitude = -0.3736
    D(    3) --> V(   16) amplitude =  0.8767

 Excited state  17: excitation energy (eV) =     526.6197
 Total energy for state  17:                  -286.54517864 au
    Multiplicity: Singlet
    Trans. Mom.: -0.0172 X  -0.0001 Y  -0.0062 Z
    Strength   :     0.0043248309
    D(    3) --> V(   17) amplitude =  0.8101
    D(    3) --> V(   18) amplitude = -0.3656
    D(    3) --> V(   19) amplitude =  0.2916

 Excited state  18: excitation energy (eV) =     526.7427
 Total energy for state  18:                  -286.54065900 au
    Multiplicity: Singlet
    Trans. Mom.:  0.0106 X   0.0128 Y   0.0045 Z
    Strength   :     0.0038074470
    D(    3) --> V(   17) amplitude =  0.5256
    D(    3) --> V(   18) amplitude =  0.6189
    D(    3) --> V(   19) amplitude = -0.4055

 Excited state  19: excitation energy (eV) =     526.8971
 Total energy for state  19:                  -286.53498366 au
    Multiplicity: Singlet
    Trans. Mom.:  0.0040 X  -0.0168 Y   0.0058 Z
    Strength   :     0.0042687955
    D(    3) --> V(   18) amplitude =  0.5791
    D(    3) --> V(   19) amplitude =  0.6907
    D(    3) --> V(   21) amplitude =  0.2357

 Excited state  20: excitation energy (eV) =     527.3702
 Total energy for state  20:                  -286.51759814 au
    Multiplicity: Singlet
    Trans. Mom.: -0.0000 X  -0.0084 Y  -0.0002 Z
    Strength   :     0.0009199041
    D(    3) --> V(   20) amplitude =  0.8961
    D(    3) --> V(   21) amplitude =  0.3165

 Excited state  21: excitation energy (eV) =     527.5277
 Total energy for state  21:                  -286.51181111 au
    Multiplicity: Singlet
    Trans. Mom.: -0.0032 X  -0.0201 Y  -0.0115 Z
    Strength   :     0.0070435031
    D(    3) --> V(   19) amplitude = -0.4062
    D(    3) --> V(   20) amplitude = -0.2443
    D(    3) --> V(   21) amplitude =  0.8035
    D(    3) --> V(   23) amplitude = -0.2353

 Excited state  22: excitation energy (eV) =     527.9866
 Total energy for state  22:                  -286.49494689 au
    Multiplicity: Singlet
    Trans. Mom.: -0.0072 X  -0.0045 Y   0.0088 Z
    Strength   :     0.0019226423
    D(    3) --> V(   22) amplitude =  0.9158

 Excited state  23: excitation energy (eV) =     528.2716
 Total energy for state  23:                  -286.48447471 au
    Multiplicity: Singlet
    Trans. Mom.: -0.0010 X   0.0069 Y   0.0010 Z
    Strength   :     0.0006411263
    D(    3) --> V(   21) amplitude =  0.2957
    D(    3) --> V(   23) amplitude =  0.9266

 Excited state  24: excitation energy (eV) =     528.4257
 Total energy for state  24:                  -286.47880912 au
    Multiplicity: Singlet
    Trans. Mom.: -0.0159 X  -0.0063 Y   0.0082 Z
    Strength   :     0.0046704252
    D(    3) --> V(   22) amplitude = -0.2573
    D(    3) --> V(   24) amplitude =  0.8238
    D(    3) --> V(   25) amplitude =  0.3064
    D(    3) --> V(   26) amplitude = -0.3585

 Excited state  25: excitation energy (eV) =     528.6584
 Total energy for state  25:                  -286.47026003 au
    Multiplicity: Singlet
    Trans. Mom.: -0.0189 X  -0.0079 Y  -0.0042 Z
    Strength   :     0.0056471513
    D(    3) --> V(   24) amplitude = -0.4848
    D(    3) --> V(   25) amplitude =  0.7155
    D(    3) --> V(   26) amplitude = -0.4268

 Excited state  26: excitation energy (eV) =     529.0280
 Total energy for state  26:                  -286.45667465 au
    Multiplicity: Singlet
    Trans. Mom.:  0.0126 X  -0.0162 Y  -0.0088 Z
    Strength   :     0.0064860963
    D(    3) --> V(   25) amplitude =  0.5077
    D(    3) --> V(   26) amplitude =  0.6748
    D(    3) --> V(   27) amplitude =  0.3782
    D(    3) --> V(   28) amplitude =  0.2382

 Excited state  27: excitation energy (eV) =     529.3034
 Total energy for state  27:                  -286.44655598 au
    Multiplicity: Singlet
    Trans. Mom.:  0.0128 X  -0.0108 Y   0.0001 Z
    Strength   :     0.0036355442
    D(    3) --> V(   26) amplitude = -0.4405
    D(    3) --> V(   27) amplitude =  0.8267

 Excited state  28: excitation energy (eV) =     529.8271
 Total energy for state  28:                  -286.42731094 au
    Multiplicity: Singlet
    Trans. Mom.: -0.0019 X  -0.0047 Y  -0.0124 Z
    Strength   :     0.0023450978
    D(    3) --> V(   27) amplitude = -0.2559
    D(    3) --> V(   28) amplitude =  0.8462
    D(    3) --> V(   29) amplitude =  0.3966

 Excited state  29: excitation energy (eV) =     530.0834
 Total energy for state  29:                  -286.41789248 au
    Multiplicity: Singlet
    Trans. Mom.:  0.0032 X   0.0041 Y   0.0062 Z
    Strength   :     0.0008561941
    D(    3) --> V(   28) amplitude = -0.4113
    D(    3) --> V(   29) amplitude =  0.8743

 Excited state  30: excitation energy (eV) =     530.4263
 Total energy for state  30:                  -286.40528796 au
    Multiplicity: Singlet
    Trans. Mom.: -0.0125 X   0.0037 Y   0.0030 Z
    Strength   :     0.0023298759
    D(    3) --> V(   27) amplitude =  0.2369
    D(    3) --> V(   30) amplitude =  0.8941
    D(    3) --> V(   31) amplitude =  0.2385

 Excited state  31: excitation energy (eV) =     530.8240
 Total energy for state  31:                  -286.39067561 au
    Multiplicity: Singlet
    Trans. Mom.:  0.0003 X  -0.0020 Y  -0.0011 Z
    Strength   :     0.0000673134
    D(    3) --> V(   30) amplitude = -0.2856
    D(    3) --> V(   31) amplitude =  0.9304

 Excited state  32: excitation energy (eV) =     531.2599
 Total energy for state  32:                  -286.37465469 au
    Multiplicity: Singlet
    Trans. Mom.:  0.0007 X  -0.0017 Y   0.0018 Z
    Strength   :     0.0000855168
    D(    3) --> V(   31) amplitude =  0.2461
    D(    3) --> V(   32) amplitude =  0.9396

 Excited state  33: excitation energy (eV) =     531.5204
 Total energy for state  33:                  -286.36508193 au
    Multiplicity: Singlet
    Trans. Mom.:  0.0028 X   0.0043 Y  -0.0049 Z
    Strength   :     0.0006506562
    D(    3) --> V(   33) amplitude =  0.9814

 Excited state  34: excitation energy (eV) =     532.3253
 Total energy for state  34:                  -286.33550428 au
    Multiplicity: Singlet
    Trans. Mom.:  0.0076 X  -0.0005 Y  -0.0038 Z
    Strength   :     0.0009504958
    D(    3) --> V(   34) amplitude =  0.9674

 Excited state  35: excitation energy (eV) =     532.8092
 Total energy for state  35:                  -286.31771822 au
    Multiplicity: Singlet
    Trans. Mom.:  0.0023 X  -0.0015 Y   0.0003 Z
    Strength   :     0.0001001693
    D(    3) --> V(   35) amplitude =  0.9725

 Excited state  36: excitation energy (eV) =     533.0217
 Total energy for state  36:                  -286.30991211 au
    Multiplicity: Singlet
    Trans. Mom.: -0.0060 X  -0.0037 Y  -0.0039 Z
    Strength   :     0.0008514496
    D(    3) --> V(   36) amplitude =  0.9397

 Excited state  37: excitation energy (eV) =     533.5772
 Total energy for state  37:                  -286.28949636 au
    Multiplicity: Singlet
    Trans. Mom.:  0.0062 X   0.0044 Y  -0.0044 Z
    Strength   :     0.0010071285
    D(    3) --> V(   37) amplitude =  0.9776

 Excited state  38: excitation energy (eV) =     534.6383
 Total energy for state  38:                  -286.25050187 au
    Multiplicity: Singlet
    Trans. Mom.: -0.0107 X  -0.0049 Y   0.0010 Z
    Strength   :     0.0018229774
    D(    3) --> V(   38) amplitude =  0.9674

 Excited state  39: excitation energy (eV) =     535.1466
 Total energy for state  39:                  -286.23182205 au
    Multiplicity: Singlet
    Trans. Mom.: -0.0015 X   0.0120 Y  -0.0106 Z
    Strength   :     0.0033851785
    D(    3) --> V(   39) amplitude =  0.9339
    D(    3) --> V(   42) amplitude =  0.2299

 Excited state  40: excitation energy (eV) =     535.7643
 Total energy for state  40:                  -286.20912008 au
    Multiplicity: Singlet
    Trans. Mom.:  0.0008 X   0.0009 Y   0.0170 Z
    Strength   :     0.0037995157
    D(    3) --> V(   40) amplitude =  0.8723
    D(    3) --> V(   41) amplitude =  0.4600

 Excited state  41: excitation energy (eV) =     535.9898
 Total energy for state  41:                  -286.20083436 au
    Multiplicity: Singlet
    Trans. Mom.: -0.0051 X   0.0098 Y  -0.0043 Z
    Strength   :     0.0018633499
    D(    3) --> V(   39) amplitude = -0.2867
    D(    3) --> V(   40) amplitude =  0.3259
    D(    3) --> V(   41) amplitude = -0.5750
    D(    3) --> V(   42) amplitude =  0.6811

 Excited state  42: excitation energy (eV) =     536.2602
 Total energy for state  42:                  -286.19089695 au
    Multiplicity: Singlet
    Trans. Mom.:  0.0057 X   0.0037 Y  -0.0036 Z
    Strength   :     0.0007863624
    D(    3) --> V(   40) amplitude = -0.3186
    D(    3) --> V(   41) amplitude =  0.6525
    D(    3) --> V(   42) amplitude =  0.6755

 Excited state  43: excitation energy (eV) =     536.6057
 Total energy for state  43:                  -286.17820124 au
    Multiplicity: Singlet
    Trans. Mom.: -0.0040 X  -0.0030 Y   0.0017 Z
    Strength   :     0.0003645229
    D(    3) --> V(   43) amplitude =  0.9526
    D(    3) --> V(   44) amplitude =  0.2434

 Excited state  44: excitation energy (eV) =     537.0916
 Total energy for state  44:                  -286.16034317 au
    Multiplicity: Singlet
    Trans. Mom.:  0.0034 X  -0.0033 Y   0.0048 Z
    Strength   :     0.0006079882
    D(    3) --> V(   43) amplitude = -0.2428
    D(    3) --> V(   44) amplitude =  0.9447

 Excited state  45: excitation energy (eV) =     537.6334
 Total energy for state  45:                  -286.14043538 au
    Multiplicity: Singlet
    Trans. Mom.:  0.0031 X   0.0022 Y   0.0038 Z
    Strength   :     0.0003763821
    D(    3) --> V(   45) amplitude =  0.9685

 Excited state  46: excitation energy (eV) =     537.9953
 Total energy for state  46:                  -286.12713309 au
    Multiplicity: Singlet
    Trans. Mom.: -0.0045 X  -0.0124 Y  -0.0013 Z
    Strength   :     0.0023235019
    D(    3) --> V(   46) amplitude =  0.9663

 Excited state  47: excitation energy (eV) =     538.2584
 Total energy for state  47:                  -286.11746534 au
    Multiplicity: Singlet
    Trans. Mom.: -0.0007 X   0.0013 Y  -0.0028 Z
    Strength   :     0.0001307688
    D(    3) --> V(   47) amplitude =  0.9657

 Excited state  48: excitation energy (eV) =     538.8982
 Total energy for state  48:                  -286.09395176 au
    Multiplicity: Singlet
    Trans. Mom.:  0.0111 X   0.0073 Y  -0.0043 Z
    Strength   :     0.0025770476
    D(    3) --> V(   48) amplitude =  0.9571

 Excited state  49: excitation energy (eV) =     539.3318
 Total energy for state  49:                  -286.07801790 au
    Multiplicity: Singlet
    Trans. Mom.: -0.0021 X   0.0041 Y  -0.0021 Z
    Strength   :     0.0003328496
    D(    3) --> V(   49) amplitude =  0.9448

 Excited state  50: excitation energy (eV) =     539.6826
 Total energy for state  50:                  -286.06512825 au
    Multiplicity: Singlet
    Trans. Mom.:  0.0020 X   0.0085 Y   0.0002 Z
    Strength   :     0.0010176486
    D(    3) --> V(   50) amplitude =  0.8673
    D(    3) --> V(   51) amplitude = -0.4041

 Excited state  51: excitation energy (eV) =     539.8959
 Total energy for state  51:                  -286.05728898 au
    Multiplicity: Singlet
    Trans. Mom.: -0.0005 X   0.0025 Y   0.0064 Z
    Strength   :     0.0006317216
    D(    3) --> V(   50) amplitude =  0.4396
    D(    3) --> V(   51) amplitude =  0.8795

 Excited state  52: excitation energy (eV) =     540.5553
 Total energy for state  52:                  -286.03305602 au
    Multiplicity: Singlet
    Trans. Mom.:  0.0072 X  -0.0011 Y   0.0106 Z
    Strength   :     0.0021866133
    D(    3) --> V(   52) amplitude =  0.8847
    D(    3) --> V(   54) amplitude = -0.3517

 Excited state  53: excitation energy (eV) =     540.7639
 Total energy for state  53:                  -286.02538827 au
    Multiplicity: Singlet
    Trans. Mom.:  0.0135 X  -0.0059 Y   0.0091 Z
    Strength   :     0.0039522530
    D(    3) --> V(   53) amplitude =  0.9432

 Excited state  54: excitation energy (eV) =     541.1504
 Total energy for state  54:                  -286.01118647 au
    Multiplicity: Singlet
    Trans. Mom.: -0.0059 X   0.0042 Y   0.0010 Z
    Strength   :     0.0007024936
    D(    3) --> V(   52) amplitude =  0.3885
    D(    3) --> V(   54) amplitude =  0.8449

 Excited state  55: excitation energy (eV) =     541.3851
 Total energy for state  55:                  -286.00256203 au
    Multiplicity: Singlet
    Trans. Mom.: -0.0046 X   0.0058 Y  -0.0013 Z
    Strength   :     0.0007437619
    D(    3) --> V(   54) amplitude = -0.2606
    D(    3) --> V(   55) amplitude =  0.8958
    D(    3) --> V(   56) amplitude =  0.2886

 Excited state  56: excitation energy (eV) =     541.7598
 Total energy for state  56:                  -285.98879244 au
    Multiplicity: Singlet
    Trans. Mom.: -0.0062 X   0.0113 Y   0.0039 Z
    Strength   :     0.0024050606
    D(    3) --> V(   54) amplitude = -0.2320
    D(    3) --> V(   55) amplitude = -0.3325
    D(    3) --> V(   56) amplitude =  0.8192
    D(    3) --> V(   57) amplitude = -0.2809

 Excited state  57: excitation energy (eV) =     541.9923
 Total energy for state  57:                  -285.98024870 au
    Multiplicity: Singlet
    Trans. Mom.:  0.0026 X  -0.0067 Y  -0.0020 Z
    Strength   :     0.0007398937
    D(    3) --> V(   56) amplitude =  0.2680
    D(    3) --> V(   57) amplitude =  0.9380

 Excited state  58: excitation energy (eV) =     542.3133
 Total energy for state  58:                  -285.96845029 au
    Multiplicity: Singlet
    Trans. Mom.: -0.0057 X   0.0152 Y   0.0024 Z
    Strength   :     0.0036025582
    D(    3) --> V(   56) amplitude = -0.3199
    D(    3) --> V(   58) amplitude =  0.4906
    D(    3) --> V(   59) amplitude =  0.6905
    D(    3) --> V(   60) amplitude = -0.3812

 Excited state  59: excitation energy (eV) =     542.5242
 Total energy for state  59:                  -285.96069860 au
    Multiplicity: Singlet
    Trans. Mom.:  0.0047 X  -0.0052 Y   0.0106 Z
    Strength   :     0.0021296418
    D(    3) --> V(   58) amplitude =  0.8435
    D(    3) --> V(   59) amplitude = -0.4297
    D(    3) --> V(   60) amplitude =  0.2395

 Excited state  60: excitation energy (eV) =     543.0634
 Total energy for state  60:                  -285.94088668 au
    Multiplicity: Singlet
    Trans. Mom.:  0.0038 X  -0.0022 Y   0.0033 Z
    Strength   :     0.0004030943
    D(    3) --> V(   59) amplitude =  0.4949
    D(    3) --> V(   60) amplitude =  0.8451

 Excited state  61: excitation energy (eV) =     543.7539
 Total energy for state  61:                  -285.91550931 au
    Multiplicity: Singlet
    Trans. Mom.:  0.0026 X   0.0019 Y   0.0054 Z
    Strength   :     0.0005277630
    D(    3) --> V(   61) amplitude =  0.9678

 Excited state  62: excitation energy (eV) =     544.5475
 Total energy for state  62:                  -285.88634553 au
    Multiplicity: Singlet
    Trans. Mom.:  0.0002 X   0.0046 Y  -0.0045 Z
    Strength   :     0.0005526934
    D(    3) --> V(   62) amplitude =  0.9797

 Excited state  63: excitation energy (eV) =     545.5635
 Total energy for state  63:                  -285.84900788 au
    Multiplicity: Singlet
    Trans. Mom.: -0.0053 X   0.0057 Y   0.0017 Z
    Strength   :     0.0008382008
    D(    3) --> V(   63) amplitude =  0.9126
    D(    3) --> V(   64) amplitude =  0.3563

 Excited state  64: excitation energy (eV) =     546.1342
 Total energy for state  64:                  -285.82803670 au
    Multiplicity: Singlet
    Trans. Mom.:  0.0052 X   0.0023 Y   0.0057 Z
    Strength   :     0.0008606086
    D(    3) --> V(   63) amplitude = -0.3336
    D(    3) --> V(   64) amplitude =  0.8617
    D(    3) --> V(   65) amplitude =  0.3311

 Excited state  65: excitation energy (eV) =     546.4860
 Total energy for state  65:                  -285.81510682 au
    Multiplicity: Singlet
    Trans. Mom.:  0.0146 X   0.0041 Y   0.0048 Z
    Strength   :     0.0033813411
    D(    3) --> V(   64) amplitude = -0.2974
    D(    3) --> V(   65) amplitude =  0.9089

 Excited state  66: excitation energy (eV) =     546.9445
 Total energy for state  66:                  -285.79825779 au
    Multiplicity: Singlet
    Trans. Mom.:  0.0133 X   0.0137 Y  -0.0117 Z
    Strength   :     0.0067043844
    D(    3) --> V(   66) amplitude =  0.9404

 Excited state  67: excitation energy (eV) =     547.4020
 Total energy for state  67:                  -285.78144276 au
    Multiplicity: Singlet
    Trans. Mom.: -0.0023 X   0.0015 Y  -0.0000 Z
    Strength   :     0.0000992674
    D(    3) --> V(   67) amplitude =  0.9703

 Excited state  68: excitation energy (eV) =     547.7803
 Total energy for state  68:                  -285.76754186 au
    Multiplicity: Singlet
    Trans. Mom.: -0.0075 X  -0.0082 Y   0.0012 Z
    Strength   :     0.0016850205
    D(    3) --> V(   68) amplitude =  0.9730

 Excited state  69: excitation energy (eV) =     548.0983
 Total energy for state  69:                  -285.75585706 au
    Multiplicity: Singlet
    Trans. Mom.:  0.0102 X  -0.0069 Y   0.0009 Z
    Strength   :     0.0020579257
    D(    3) --> V(   69) amplitude =  0.9353
    D(    3) --> V(   70) amplitude = -0.2758

 Excited state  70: excitation energy (eV) =     548.2364
 Total energy for state  70:                  -285.75077936 au
    Multiplicity: Singlet
    Trans. Mom.:  0.0090 X  -0.0096 Y  -0.0053 Z
    Strength   :     0.0027114909
    D(    3) --> V(   69) amplitude =  0.2643
    D(    3) --> V(   70) amplitude =  0.8451
    D(    3) --> V(   71) amplitude = -0.3519

 Excited state  71: excitation energy (eV) =     548.6196
 Total energy for state  71:                  -285.73669683 au
    Multiplicity: Singlet
    Trans. Mom.:  0.0051 X  -0.0098 Y   0.0012 Z
    Strength   :     0.0016643521
    D(    3) --> V(   70) amplitude =  0.3476
    D(    3) --> V(   71) amplitude =  0.8992

 Excited state  72: excitation energy (eV) =     548.8425
 Total energy for state  72:                  -285.72850742 au
    Multiplicity: Singlet
    Trans. Mom.:  0.0048 X  -0.0021 Y  -0.0108 Z
    Strength   :     0.0019379290
    D(    3) --> V(   72) amplitude =  0.9653

 Excited state  73: excitation energy (eV) =     549.4779
 Total energy for state  73:                  -285.70515792 au
    Multiplicity: Singlet
    Trans. Mom.:  0.0124 X  -0.0172 Y   0.0005 Z
    Strength   :     0.0060849644
    D(    3) --> V(   73) amplitude =  0.8195
    D(    3) --> V(   74) amplitude = -0.3203
    D(    3) --> V(   75) amplitude =  0.2495

 Excited state  74: excitation energy (eV) =     549.7490
 Total energy for state  74:                  -285.69519311 au
    Multiplicity: Singlet
    Trans. Mom.: -0.0129 X   0.0097 Y   0.0071 Z
    Strength   :     0.0041719721
    D(    3) --> V(   73) amplitude =  0.5115
    D(    3) --> V(   74) amplitude =  0.6578
    D(    3) --> V(   75) amplitude = -0.3629
    D(    3) --> V(   77) amplitude =  0.3169

 Excited state  75: excitation energy (eV) =     549.8914
 Total energy for state  75:                  -285.68995921 au
    Multiplicity: Singlet
    Trans. Mom.:  0.0031 X   0.0007 Y   0.0109 Z
    Strength   :     0.0017307904
    D(    3) --> V(   74) amplitude =  0.4266
    D(    3) --> V(   75) amplitude =  0.8655

 Excited state  76: excitation energy (eV) =     550.3083
 Total energy for state  76:                  -285.67464074 au
    Multiplicity: Singlet
    Trans. Mom.:  0.0050 X   0.0166 Y   0.0029 Z
    Strength   :     0.0041895884
    D(    3) --> V(   74) amplitude = -0.4659
    D(    3) --> V(   76) amplitude =  0.3927
    D(    3) --> V(   77) amplitude =  0.7630

 Excited state  77: excitation energy (eV) =     550.5656
 Total energy for state  77:                  -285.66518312 au
    Multiplicity: Singlet
    Trans. Mom.: -0.0143 X  -0.0184 Y   0.0079 Z
    Strength   :     0.0081689864
    D(    3) --> V(   76) amplitude =  0.7930
    D(    3) --> V(   77) amplitude = -0.4392
    D(    3) --> V(   78) amplitude =  0.3184

 Excited state  78: excitation energy (eV) =     551.2144
 Total energy for state  78:                  -285.64134001 au
    Multiplicity: Singlet
    Trans. Mom.: -0.0029 X   0.0013 Y   0.0086 Z
    Strength   :     0.0011364078
    D(    3) --> V(   76) amplitude = -0.3213
    D(    3) --> V(   78) amplitude =  0.8512
    D(    3) --> V(   79) amplitude = -0.3437

 Excited state  79: excitation energy (eV) =     551.5390
 Total energy for state  79:                  -285.62941210 au
    Multiplicity: Singlet
    Trans. Mom.: -0.0031 X  -0.0118 Y  -0.0075 Z
    Strength   :     0.0027667177
    D(    3) --> V(   78) amplitude =  0.2886
    D(    3) --> V(   79) amplitude =  0.7034
    D(    3) --> V(   80) amplitude =  0.3012
    D(    3) --> V(   81) amplitude =  0.5032

 Excited state  80: excitation energy (eV) =     551.8251
 Total energy for state  80:                  -285.61889756 au
    Multiplicity: Singlet
    Trans. Mom.:  0.0005 X  -0.0018 Y   0.0274 Z
    Strength   :     0.0102025724
    D(    3) --> V(   79) amplitude = -0.4224
    D(    3) --> V(   80) amplitude =  0.8672

 Excited state  81: excitation energy (eV) =     552.1950
 Total energy for state  81:                  -285.60530297 au
    Multiplicity: Singlet
    Trans. Mom.:  0.0259 X   0.0034 Y  -0.0005 Z
    Strength   :     0.0092060400
    D(    3) --> V(   81) amplitude = -0.2807
    D(    3) --> V(   82) amplitude =  0.8444
    D(    3) --> V(   83) amplitude = -0.2680

 Excited state  82: excitation energy (eV) =     552.3502
 Total energy for state  82:                  -285.59960165 au
    Multiplicity: Singlet
    Trans. Mom.:  0.0028 X  -0.0053 Y  -0.0102 Z
    Strength   :     0.0018973913
    D(    3) --> V(   79) amplitude = -0.3897
    D(    3) --> V(   80) amplitude = -0.2398
    D(    3) --> V(   81) amplitude =  0.7728
    D(    3) --> V(   82) amplitude =  0.3788

 Excited state  83: excitation energy (eV) =     553.2456
 Total energy for state  83:                  -285.56669552 au
    Multiplicity: Singlet
    Trans. Mom.: -0.0072 X   0.0005 Y   0.0056 Z
    Strength   :     0.0011395074
    D(    3) --> V(   82) amplitude =  0.2666
    D(    3) --> V(   83) amplitude =  0.9218
    D(    3) --> V(   84) amplitude =  0.2200

 Excited state  84: excitation energy (eV) =     554.1475
 Total energy for state  84:                  -285.53355137 au
    Multiplicity: Singlet
    Trans. Mom.:  0.0044 X   0.0016 Y   0.0186 Z
    Strength   :     0.0049792824
    D(    3) --> V(   84) amplitude =  0.9389

 Excited state  85: excitation energy (eV) =     554.9266
 Total energy for state  85:                  -285.50491928 au
    Multiplicity: Singlet
    Trans. Mom.:  0.0099 X   0.0108 Y   0.0184 Z
    Strength   :     0.0075358278
    D(    3) --> V(   85) amplitude =  0.9542

 Excited state  86: excitation energy (eV) =     555.5513
 Total energy for state  86:                  -285.48196451 au
    Multiplicity: Singlet
    Trans. Mom.:  0.0021 X   0.0071 Y  -0.0038 Z
    Strength   :     0.0009406392
    D(    3) --> V(   86) amplitude =  0.9913

 Excited state  87: excitation energy (eV) =     556.1255
 Total energy for state  87:                  -285.46086163 au
    Multiplicity: Singlet
    Trans. Mom.:  0.0087 X   0.0050 Y  -0.0055 Z
    Strength   :     0.0017853679
    D(    3) --> V(   87) amplitude =  0.9566

 Excited state  88: excitation energy (eV) =     556.5810
 Total energy for state  88:                  -285.44412211 au
    Multiplicity: Singlet
    Trans. Mom.:  0.0020 X   0.0009 Y   0.0112 Z
    Strength   :     0.0017850524
    D(    3) --> V(   87) amplitude =  0.2462
    D(    3) --> V(   88) amplitude =  0.7888
    D(    3) --> V(   89) amplitude =  0.5191

 Excited state  89: excitation energy (eV) =     556.9243
 Total energy for state  89:                  -285.43150736 au
    Multiplicity: Singlet
    Trans. Mom.: -0.0092 X  -0.0017 Y   0.0036 Z
    Strength   :     0.0013685704
    D(    3) --> V(   88) amplitude = -0.5390
    D(    3) --> V(   89) amplitude =  0.8248

 Excited state  90: excitation energy (eV) =     557.9784
 Total energy for state  90:                  -285.39276747 au
    Multiplicity: Singlet
    Trans. Mom.:  0.0075 X  -0.0033 Y  -0.0112 Z
    Strength   :     0.0026384679
    D(    3) --> V(   90) amplitude =  0.9528

 Excited state  91: excitation energy (eV) =     558.4534
 Total energy for state  91:                  -285.37531180 au
    Multiplicity: Singlet
    Trans. Mom.: -0.0027 X  -0.0072 Y   0.0101 Z
    Strength   :     0.0022077695
    D(    3) --> V(   91) amplitude =  0.9467

 Excited state  92: excitation energy (eV) =     558.7716
 Total energy for state  92:                  -285.36362096 au
    Multiplicity: Singlet
    Trans. Mom.: -0.0038 X   0.0056 Y  -0.0169 Z
    Strength   :     0.0045183235
    D(    3) --> V(   92) amplitude =  0.9478

 Excited state  93: excitation energy (eV) =     559.7307
 Total energy for state  93:                  -285.32837238 au
    Multiplicity: Singlet
    Trans. Mom.: -0.0074 X   0.0041 Y   0.0036 Z
    Strength   :     0.0011585871
    D(    3) --> V(   93) amplitude =  0.8610
    D(    3) --> V(   94) amplitude =  0.4265

 Excited state  94: excitation energy (eV) =     559.9285
 Total energy for state  94:                  -285.32110551 au
    Multiplicity: Singlet
    Trans. Mom.: -0.0063 X   0.0022 Y  -0.0022 Z
    Strength   :     0.0006690604
    D(    3) --> V(   93) amplitude = -0.4268
    D(    3) --> V(   94) amplitude =  0.8130
    D(    3) --> V(   96) amplitude =  0.3294

 Excited state  95: excitation energy (eV) =     559.9562
 Total energy for state  95:                  -285.32008711 au
    Multiplicity: Singlet
    Trans. Mom.:  0.0033 X   0.0123 Y   0.0051 Z
    Strength   :     0.0025819425
    D(    3) --> V(   95) amplitude =  0.9736

 Excited state  96: excitation energy (eV) =     560.3009
 Total energy for state  96:                  -285.30741827 au
    Multiplicity: Singlet
    Trans. Mom.: -0.0153 X   0.0011 Y   0.0009 Z
    Strength   :     0.0032372756
    D(    3) --> V(   94) amplitude = -0.3170
    D(    3) --> V(   96) amplitude =  0.8959

 Excited state  97: excitation energy (eV) =     561.4660
 Total energy for state  97:                  -285.26460016 au
    Multiplicity: Singlet
    Trans. Mom.:  0.0076 X   0.0000 Y  -0.0029 Z
    Strength   :     0.0009128542
    D(    3) --> V(   96) amplitude =  0.2330
    D(    3) --> V(   97) amplitude =  0.6513
    D(    3) --> V(   98) amplitude =  0.6737

 Excited state  98: excitation energy (eV) =     561.7094
 Total energy for state  98:                  -285.25565589 au
    Multiplicity: Singlet
    Trans. Mom.: -0.0016 X   0.0075 Y   0.0027 Z
    Strength   :     0.0009079017
    D(    3) --> V(   97) amplitude =  0.7167
    D(    3) --> V(   98) amplitude = -0.6596

 Excited state  99: excitation energy (eV) =     561.9442
 Total energy for state  99:                  -285.24702668 au
    Multiplicity: Singlet
    Trans. Mom.: -0.0130 X   0.0056 Y   0.0061 Z
    Strength   :     0.0032582219
    D(    3) --> V(   98) amplitude =  0.2396
    D(    3) --> V(   99) amplitude = -0.2553
    D(    3) --> V(  100) amplitude =  0.9020

 Excited state 100: excitation energy (eV) =     562.1103
 Total energy for state 100:                  -285.24092438 au
    Multiplicity: Singlet
    Trans. Mom.:  0.0013 X  -0.0045 Y  -0.0010 Z
    Strength   :     0.0003150290
    D(    3) --> V(   99) amplitude =  0.9518
    D(    3) --> V(  100) amplitude =  0.2600

 Excited state 101: excitation energy (eV) =     562.8560
 Total energy for state 101:                  -285.21352132 au
    Multiplicity: Singlet
    Trans. Mom.:  0.0066 X  -0.0156 Y   0.0141 Z
    Strength   :     0.0066989854
    D(    3) --> V(  101) amplitude =  0.7820
    D(    3) --> V(  102) amplitude =  0.4629
    D(    3) --> V(  103) amplitude = -0.3733

 Excited state 102: excitation energy (eV) =     563.0442
 Total energy for state 102:                  -285.20660457 au
    Multiplicity: Singlet
    Trans. Mom.:  0.0007 X  -0.0090 Y   0.0059 Z
    Strength   :     0.0015916108
    D(    3) --> V(  101) amplitude = -0.5885
    D(    3) --> V(  102) amplitude =  0.6984
    D(    3) --> V(  103) amplitude = -0.2946

 Excited state 103: excitation energy (eV) =     563.3108
 Total energy for state 103:                  -285.19680486 au
    Multiplicity: Singlet
    Trans. Mom.: -0.0020 X   0.0141 Y  -0.0053 Z
    Strength   :     0.0031892774
    D(    3) --> V(  102) amplitude =  0.4561
    D(    3) --> V(  103) amplitude =  0.8557

 Excited state 104: excitation energy (eV) =     563.6803
 Total energy for state 104:                  -285.18322693 au
    Multiplicity: Singlet
    Trans. Mom.: -0.0015 X  -0.0102 Y  -0.0108 Z
    Strength   :     0.0030810011
    D(    3) --> V(  104) amplitude =  0.9630

 Excited state 105: excitation energy (eV) =     564.8422
 Total energy for state 105:                  -285.14052698 au
    Multiplicity: Singlet
    Trans. Mom.:  0.0013 X   0.0036 Y   0.0042 Z
    Strength   :     0.0004463765
    D(    3) --> V(  106) amplitude =  0.9283
    D(    3) --> V(  107) amplitude = -0.2460

 Excited state 106: excitation energy (eV) =     565.0211
 Total energy for state 106:                  -285.13395360 au
    Multiplicity: Singlet
    Trans. Mom.:  0.0052 X   0.0055 Y   0.0059 Z
    Strength   :     0.0012767374
    D(    3) --> V(  105) amplitude =  0.8823
    D(    3) --> V(  106) amplitude =  0.2253
    D(    3) --> V(  107) amplitude =  0.3776

 Excited state 107: excitation energy (eV) =     565.2072
 Total energy for state 107:                  -285.12711654 au
    Multiplicity: Singlet
    Trans. Mom.: -0.0107 X  -0.0014 Y   0.0034 Z
    Strength   :     0.0017630712
    D(    3) --> V(  105) amplitude = -0.4276
    D(    3) --> V(  107) amplitude =  0.8701

 Excited state 108: excitation energy (eV) =     565.7444
 Total energy for state 108:                  -285.10737259 au
    Multiplicity: Singlet
    Trans. Mom.:  0.0001 X  -0.0029 Y  -0.0083 Z
    Strength   :     0.0010639159
    D(    3) --> V(  108) amplitude =  0.9446
    D(    3) --> V(  109) amplitude = -0.2364

 Excited state 109: excitation energy (eV) =     565.9185
 Total energy for state 109:                  -285.10097534 au
    Multiplicity: Singlet
    Trans. Mom.:  0.0049 X  -0.0068 Y   0.0063 Z
    Strength   :     0.0015268001
    D(    3) --> V(  108) amplitude =  0.2332
    D(    3) --> V(  109) amplitude =  0.9440

 Excited state 110: excitation energy (eV) =     566.1620
 Total energy for state 110:                  -285.09202761 au
    Multiplicity: Singlet
    Trans. Mom.: -0.0057 X   0.0005 Y  -0.0004 Z
    Strength   :     0.0004532622
    D(    3) --> V(  110) amplitude =  0.9133
    D(    3) --> V(  111) amplitude =  0.2357

 Excited state 111: excitation energy (eV) =     566.5410
 Total energy for state 111:                  -285.07809804 au
    Multiplicity: Singlet
    Trans. Mom.: -0.0055 X   0.0002 Y  -0.0081 Z
    Strength   :     0.0013435514
    D(    3) --> V(  110) amplitude = -0.2144
    D(    3) --> V(  111) amplitude =  0.8371
    D(    3) --> V(  112) amplitude =  0.3765
    D(    3) --> V(  113) amplitude =  0.2463

 Excited state 112: excitation energy (eV) =     566.8759
 Total energy for state 112:                  -285.06579082 au
    Multiplicity: Singlet
    Trans. Mom.: -0.0001 X   0.0026 Y  -0.0051 Z
    Strength   :     0.0004564541
    D(    3) --> V(  111) amplitude = -0.4199
    D(    3) --> V(  112) amplitude =  0.6908
    D(    3) --> V(  113) amplitude =  0.5232

 Excited state 113: excitation energy (eV) =     566.8819
 Total energy for state 113:                  -285.06557232 au
    Multiplicity: Singlet
    Trans. Mom.:  0.0041 X  -0.0005 Y  -0.0064 Z
    Strength   :     0.0007970736
    D(    3) --> V(  112) amplitude = -0.5911
    D(    3) --> V(  113) amplitude =  0.7156
    D(    3) --> V(  115) amplitude =  0.2520

 Excited state 114: excitation energy (eV) =     567.2888
 Total energy for state 114:                  -285.05061790 au
    Multiplicity: Singlet
    Trans. Mom.: -0.0056 X  -0.0052 Y   0.0007 Z
    Strength   :     0.0008129682
    D(    3) --> V(  114) amplitude =  0.9506

 Excited state 115: excitation energy (eV) =     567.3837
 Total energy for state 115:                  -285.04712945 au
    Multiplicity: Singlet
    Trans. Mom.:  0.0027 X   0.0023 Y   0.0002 Z
    Strength   :     0.0001743051
    D(    3) --> V(  113) amplitude = -0.3258
    D(    3) --> V(  115) amplitude =  0.8946

 Excited state 116: excitation energy (eV) =     567.8089
 Total energy for state 116:                  -285.03150289 au
    Multiplicity: Singlet
    Trans. Mom.:  0.0014 X  -0.0000 Y  -0.0044 Z
    Strength   :     0.0002922398
    D(    3) --> V(  116) amplitude =  0.9315
    D(    3) --> V(  117) amplitude = -0.2541

 Excited state 117: excitation energy (eV) =     568.0989
 Total energy for state 117:                  -285.02084860 au
    Multiplicity: Singlet
    Trans. Mom.: -0.0067 X   0.0047 Y  -0.0025 Z
    Strength   :     0.0010228048
    D(    3) --> V(  116) amplitude =  0.2326
    D(    3) --> V(  117) amplitude =  0.9376

 Excited state 118: excitation energy (eV) =     568.4518
 Total energy for state 118:                  -285.00787988 au
    Multiplicity: Singlet
    Trans. Mom.:  0.0068 X   0.0027 Y  -0.0015 Z
    Strength   :     0.0007767969
    D(    3) --> V(  118) amplitude =  0.9759

 Excited state 119: excitation energy (eV) =     568.7255
 Total energy for state 119:                  -284.99781856 au
    Multiplicity: Singlet
    Trans. Mom.: -0.0028 X  -0.0019 Y  -0.0026 Z
    Strength   :     0.0002583583
    D(    3) --> V(  119) amplitude =  0.9699

 Excited state 120: excitation energy (eV) =     568.9628
 Total energy for state 120:                  -284.98910036 au
    Multiplicity: Singlet
    Trans. Mom.:  0.0005 X   0.0064 Y  -0.0091 Z
    Strength   :     0.0017269817
    D(    3) --> V(  120) amplitude =  0.9868

 Excited state 121: excitation energy (eV) =     569.4610
 Total energy for state 121:                  -284.97079036 au
    Multiplicity: Singlet
    Trans. Mom.: -0.0041 X  -0.0044 Y  -0.0030 Z
    Strength   :     0.0006411524
    D(    3) --> V(  121) amplitude =  0.9849

 Excited state 122: excitation energy (eV) =     570.1201
 Total energy for state 122:                  -284.94657020 au
    Multiplicity: Singlet
    Trans. Mom.: -0.0088 X  -0.0023 Y  -0.0001 Z
    Strength   :     0.0011477611
    D(    3) --> V(  122) amplitude =  0.9274
    D(    3) --> V(  123) amplitude =  0.3284

 Excited state 123: excitation energy (eV) =     570.5038
 Total energy for state 123:                  -284.93246807 au
    Multiplicity: Singlet
    Trans. Mom.:  0.0068 X   0.0031 Y   0.0006 Z
    Strength   :     0.0007922109
    D(    3) --> V(  122) amplitude = -0.3226
    D(    3) --> V(  123) amplitude =  0.9266

 Excited state 124: excitation energy (eV) =     570.9087
 Total energy for state 124:                  -284.91758715 au
    Multiplicity: Singlet
    Trans. Mom.:  0.0047 X   0.0131 Y   0.0042 Z
    Strength   :     0.0029471833
    D(    3) --> V(  124) amplitude =  0.9480

 Excited state 125: excitation energy (eV) =     571.4104
 Total energy for state 125:                  -284.89915317 au
    Multiplicity: Singlet
    Trans. Mom.:  0.0109 X  -0.0046 Y   0.0023 Z
    Strength   :     0.0020349363
    D(    3) --> V(  125) amplitude =  0.8543
    D(    3) --> V(  126) amplitude = -0.4007

 Excited state 126: excitation energy (eV) =     571.4509
 Total energy for state 126:                  -284.89766214 au
    Multiplicity: Singlet
    Trans. Mom.: -0.0019 X   0.0125 Y  -0.0042 Z
    Strength   :     0.0024738854
    D(    3) --> V(  125) amplitude =  0.4480
    D(    3) --> V(  126) amplitude =  0.4728
    D(    3) --> V(  127) amplitude =  0.3977
    D(    3) --> V(  128) amplitude =  0.5810

 Excited state 127: excitation energy (eV) =     571.8856
 Total energy for state 127:                  -284.88168925 au
    Multiplicity: Singlet
    Trans. Mom.: -0.0049 X   0.0009 Y  -0.0025 Z
    Strength   :     0.0004386778
    D(    3) --> V(  126) amplitude =  0.7588
    D(    3) --> V(  127) amplitude = -0.2824
    D(    3) --> V(  128) amplitude = -0.5112

 Excited state 128: excitation energy (eV) =     571.9055
 Total energy for state 128:                  -284.88095869 au
    Multiplicity: Singlet
    Trans. Mom.:  0.0010 X   0.0061 Y   0.0099 Z
    Strength   :     0.0019030587
    D(    3) --> V(  127) amplitude =  0.8194
    D(    3) --> V(  128) amplitude = -0.5288

 Excited state 129: excitation energy (eV) =     572.4068
 Total energy for state 129:                  -284.86253553 au
    Multiplicity: Singlet
    Trans. Mom.: -0.0091 X  -0.0028 Y   0.0036 Z
    Strength   :     0.0014550531
    D(    3) --> V(  129) amplitude =  0.9519

 Excited state 130: excitation energy (eV) =     572.8837
 Total energy for state 130:                  -284.84501068 au
    Multiplicity: Singlet
    Trans. Mom.: -0.0006 X  -0.0045 Y  -0.0004 Z
    Strength   :     0.0002910950
    D(    3) --> V(  130) amplitude =  0.9625

 Excited state 131: excitation energy (eV) =     573.4606
 Total energy for state 131:                  -284.82380736 au
    Multiplicity: Singlet
    Trans. Mom.: -0.0051 X  -0.0086 Y  -0.0013 Z
    Strength   :     0.0014339535
    D(    3) --> V(  131) amplitude =  0.9668

 Excited state 132: excitation energy (eV) =     573.7282
 Total energy for state 132:                  -284.81397422 au
    Multiplicity: Singlet
    Trans. Mom.: -0.0033 X  -0.0009 Y   0.0034 Z
    Strength   :     0.0003222828
    D(    3) --> V(  132) amplitude =  0.9560

 Excited state 133: excitation energy (eV) =     574.2138
 Total energy for state 133:                  -284.79612747 au
    Multiplicity: Singlet
    Trans. Mom.: -0.0019 X   0.0035 Y  -0.0010 Z
    Strength   :     0.0002384575
    D(    3) --> V(  133) amplitude =  0.9443

 Excited state 134: excitation energy (eV) =     574.6179
 Total energy for state 134:                  -284.78127716 au
    Multiplicity: Singlet
    Trans. Mom.:  0.0060 X   0.0035 Y   0.0047 Z
    Strength   :     0.0009834144
    D(    3) --> V(  134) amplitude =  0.9528

 Excited state 135: excitation energy (eV) =     574.7779
 Total energy for state 135:                  -284.77539830 au
    Multiplicity: Singlet
    Trans. Mom.:  0.0053 X   0.0021 Y   0.0015 Z
    Strength   :     0.0004911570
    D(    3) --> V(  135) amplitude =  0.9223
    D(    3) --> V(  136) amplitude = -0.2933

 Excited state 136: excitation energy (eV) =     575.1642
 Total energy for state 136:                  -284.76120239 au
    Multiplicity: Singlet
    Trans. Mom.: -0.0018 X   0.0059 Y   0.0022 Z
    Strength   :     0.0006107773
    D(    3) --> V(  135) amplitude =  0.3162
    D(    3) --> V(  136) amplitude =  0.8970

 Excited state 137: excitation energy (eV) =     575.7264
 Total energy for state 137:                  -284.74054264 au
    Multiplicity: Singlet
    Trans. Mom.:  0.0017 X  -0.0039 Y   0.0011 Z
    Strength   :     0.0002762083
    D(    3) --> V(  137) amplitude =  0.9500

 Excited state 138: excitation energy (eV) =     576.0844
 Total energy for state 138:                  -284.72738531 au
    Multiplicity: Singlet
    Trans. Mom.:  0.0012 X  -0.0097 Y  -0.0051 Z
    Strength   :     0.0017226096
    D(    3) --> V(  138) amplitude =  0.9676

 Excited state 139: excitation energy (eV) =     576.6996
 Total energy for state 139:                  -284.70477752 au
    Multiplicity: Singlet
    Trans. Mom.:  0.0036 X  -0.0013 Y   0.0046 Z
    Strength   :     0.0005052135
    D(    3) --> V(  139) amplitude =  0.9389
    D(    3) --> V(  140) amplitude =  0.2740

 Excited state 140: excitation energy (eV) =     577.1160
 Total energy for state 140:                  -284.68947474 au
    Multiplicity: Singlet
    Trans. Mom.: -0.0010 X  -0.0048 Y   0.0036 Z
    Strength   :     0.0005222761
    D(    3) --> V(  139) amplitude = -0.2770
    D(    3) --> V(  140) amplitude =  0.9489

 Excited state 141: excitation energy (eV) =     577.9673
 Total energy for state 141:                  -284.65819148 au
    Multiplicity: Singlet
    Trans. Mom.: -0.0046 X   0.0094 Y   0.0066 Z
    Strength   :     0.0021700820
    D(    3) --> V(  141) amplitude = -0.6884
    D(    3) --> V(  142) amplitude =  0.6963

 Excited state 142: excitation energy (eV) =     578.3362
 Total energy for state 142:                  -284.64463495 au
    Multiplicity: Singlet
    Trans. Mom.:  0.0042 X   0.0002 Y  -0.0001 Z
    Strength   :     0.0002483668
    D(    3) --> V(  141) amplitude =  0.6977
    D(    3) --> V(  142) amplitude =  0.6899

 Excited state 143: excitation energy (eV) =     579.5984
 Total energy for state 143:                  -284.59824995 au
    Multiplicity: Singlet
    Trans. Mom.:  0.0003 X   0.0061 Y   0.0019 Z
    Strength   :     0.0005900068
    D(    3) --> V(  143) amplitude =  0.9818

 Excited state 144: excitation energy (eV) =     580.3747
 Total energy for state 144:                  -284.56971950 au
    Multiplicity: Singlet
    Trans. Mom.: -0.0014 X   0.0011 Y  -0.0012 Z
    Strength   :     0.0000668109
    D(    3) --> V(  144) amplitude =  0.9801

 Excited state 145: excitation energy (eV) =     580.6714
 Total energy for state 145:                  -284.55881561 au
    Multiplicity: Singlet
    Trans. Mom.: -0.0014 X   0.0115 Y   0.0018 Z
    Strength   :     0.0019459848
    D(    3) --> V(  145) amplitude =  0.9730

 Excited state 146: excitation energy (eV) =     581.2556
 Total energy for state 146:                  -284.53734872 au
    Multiplicity: Singlet
    Trans. Mom.:  0.0012 X  -0.0050 Y   0.0071 Z
    Strength   :     0.0010820109
    D(    3) --> V(  146) amplitude =  0.8978
    D(    3) --> V(  148) amplitude = -0.2313
    D(    3) --> V(  149) amplitude = -0.2569

 Excited state 147: excitation energy (eV) =     581.6455
 Total energy for state 147:                  -284.52301981 au
    Multiplicity: Singlet
    Trans. Mom.: -0.0028 X  -0.0029 Y  -0.0039 Z
    Strength   :     0.0004495270
    D(    3) --> V(  146) amplitude = -0.2865
    D(    3) --> V(  147) amplitude =  0.8048
    D(    3) --> V(  148) amplitude = -0.4589

 Excited state 148: excitation energy (eV) =     581.8412
 Total energy for state 148:                  -284.51582763 au
    Multiplicity: Singlet
    Trans. Mom.:  0.0038 X  -0.0066 Y   0.0010 Z
    Strength   :     0.0008498330
    D(    3) --> V(  147) amplitude =  0.5369
    D(    3) --> V(  148) amplitude =  0.7877

 Excited state 149: excitation energy (eV) =     581.9666
 Total energy for state 149:                  -284.51122019 au
    Multiplicity: Singlet
    Trans. Mom.: -0.0142 X   0.0098 Y   0.0054 Z
    Strength   :     0.0046480620
    D(    3) --> V(  149) amplitude =  0.7555
    D(    3) --> V(  150) amplitude = -0.5683

 Excited state 150: excitation energy (eV) =     582.6026
 Total energy for state 150:                  -284.48784503 au
    Multiplicity: Singlet
    Trans. Mom.:  0.0020 X  -0.0007 Y  -0.0043 Z
    Strength   :     0.0003343740
    D(    3) --> V(  146) amplitude =  0.2361
    D(    3) --> V(  148) amplitude = -0.3034
    D(    3) --> V(  149) amplitude =  0.5216
    D(    3) --> V(  150) amplitude =  0.6861
    D(    3) --> V(  151) amplitude = -0.3049

 ---------------------------------------------------
  SETman timing summary (seconds)
  CPU time            177917.20s
  System time              0.01s
  Wall time            89031.55s
================================================================================
                             Excited State Analysis
================================================================================

  Ground State (Reference) :
  -------------------------
    NOs
      Occupation of frontier NOs:
         0.0000   0.0000   2.0000   2.0000
      Number of electrons: 40.000000
      Number of unpaired electrons: n_u = -0.00000, n_u,nl =  0.00000
    
    Mulliken Population Analysis (State DM)
    Atom      Charge (e)
    --------------------
     1 O       -0.692633
     2 H        0.352337
     3 H        0.353683
     4 O       -0.565401
     5 H        0.280750
     6 H        0.300462
     7 O       -0.609221
     8 H        0.338214
     9 H        0.242217
    10 O       -0.599520
    11 H        0.307933
    12 H        0.291179
    --------------------
    Sum:       -0.000000
    
    Multipole moment analysis of the density matrix
      Molecular charge:                      -0.000000
      Number of electrons:                   40.000000
        Center of electronic charge [Ang]: [  0.006345,  -0.001469,  -0.005446]
      Total nuclear charge:                  40.000000
        Center of nuclear charge [Ang]:    [  0.034553,   0.018780,  -0.012035]
      Dipole moment [D]:                     6.790521
        Cartesian components [D]:          [  5.419685,   3.890449,  -1.265938]
      RMS size of the density [Ang]:         2.581335
        Cartesian components [Ang]:        [  1.146465,   2.070826,   1.029850]
    

  ----------------------------------------------------------------------------
                  Analysis of Unrelaxed Density Matrices
  ----------------------------------------------------------------------------

  Singlet 1 :
  -------------------------
    NOs
      Occupation of frontier NOs:
         0.0000   1.0000   1.0000   2.0000
      Number of electrons: 40.000000
      Number of unpaired electrons: n_u =  2.00000, n_u,nl =  2.00000
      NO participation ratio (PR_NO):  2.000000
    
    NDOs
      Leading detachment eigenvalues:
        -1.0000  -0.0000
      Leading attachment eigenvalues:
         1.0000   0.0000
      Number of detached / attached electrons: p_D =  1.0000, p_A =  1.0000
      Number of involved orbitals: PR_D =  1.000000, PR_A =  1.000000
    
    Mulliken Population Analysis (State/Difference DM)
    Atom      Charge (e)              h+              e-           Del q
    --------------------------------------------------------------------
     1 O        0.212831        0.991823       -0.086359        0.905464
     2 H        0.381518        0.004862        0.024319        0.029181
     3 H        0.171656        0.003309       -0.185335       -0.182026
     4 O       -0.395884        0.000004        0.169512        0.169517
     5 H        0.033813        0.000000       -0.246938       -0.246938
     6 H       -0.124067        0.000000       -0.424529       -0.424529
     7 O       -0.603352        0.000000        0.005869        0.005870
     8 H        0.294657        0.000001       -0.043559       -0.043558
     9 H        0.230094       -0.000000       -0.012123       -0.012123
    10 O       -0.540340        0.000000        0.059180        0.059180
    11 H        0.145299        0.000000       -0.162634       -0.162634
    12 H        0.193776        0.000000       -0.097404       -0.097404
    --------------------------------------------------------------------
    Sum:        0.000000        1.000000       -1.000000        0.000000
    
    Multipole moment analysis of the density matrix
      Molecular charge:                      0.000000
      Number of electrons:                   40.000000
        Center of electronic charge [Ang]: [  0.032555,   0.041358,  -0.025673]
      Total nuclear charge:                  40.000000
        Center of nuclear charge [Ang]:    [  0.034554,   0.018780,  -0.012035]
      Dipole moment [D]:                     5.082336
        Cartesian components [D]:          [  0.384039,  -4.337870,   2.620217]
      RMS size of the density [Ang]:         2.621980
        Cartesian components [Ang]:        [  1.191327,   2.089206,   1.044384]
    
    Exciton analysis of the difference density matrix
      <r_h> [Ang]:                  [  0.086285,  -0.649832,   0.878503]
      <r_e> [Ang]:                  [  1.134678,   1.063258,   0.069427]
      |<r_e - r_h>| [Ang]:            2.165273
      Hole size [Ang]:                0.122783
        Cartesian components [Ang]: [  0.070897,   0.070893,   0.070877]
      Electron size [Ang]:            2.717989
        Cartesian components [Ang]: [  1.720735,   1.556777,   1.415267]

  Singlet 2 :
  -------------------------
    NOs
      Occupation of frontier NOs:
         0.0000   1.0000   1.0000   2.0000
      Number of electrons: 40.000000
      Number of unpaired electrons: n_u =  2.00000, n_u,nl =  2.00000
      NO participation ratio (PR_NO):  2.000000
    
    NDOs
      Leading detachment eigenvalues:
        -1.0000  -0.0000
      Leading attachment eigenvalues:
         1.0000   0.0000
      Number of detached / attached electrons: p_D =  1.0000, p_A =  1.0000
      Number of involved orbitals: PR_D =  1.000000, PR_A =  1.000000
    
    Mulliken Population Analysis (State/Difference DM)
    Atom      Charge (e)              h+              e-           Del q
    --------------------------------------------------------------------
     1 O        0.317626        0.991823        0.018436        1.010259
     2 H        0.321745        0.004862       -0.035454       -0.030592
     3 H        0.181424        0.003309       -0.175568       -0.172259
     4 O       -0.445934        0.000004        0.119463        0.119467
     5 H       -0.094177        0.000000       -0.374927       -0.374927
     6 H        0.113291        0.000000       -0.187171       -0.187171
     7 O       -0.596935        0.000000        0.012286        0.012287
     8 H        0.302788        0.000001       -0.035427       -0.035426
     9 H        0.172912       -0.000000       -0.069305       -0.069305
    10 O       -0.511765        0.000000        0.087755        0.087755
    11 H        0.023737        0.000000       -0.284196       -0.284196
    12 H        0.215287        0.000000       -0.075892       -0.075892
    --------------------------------------------------------------------
    Sum:       -0.000000        1.000000       -1.000000       -0.000000
    
    Multipole moment analysis of the density matrix
      Molecular charge:                      -0.000000
      Number of electrons:                   40.000000
        Center of electronic charge [Ang]: [  0.023006,   0.038011,  -0.027809]
      Total nuclear charge:                  40.000000
        Center of nuclear charge [Ang]:    [  0.034553,   0.018780,  -0.012035]
      Dipole moment [D]:                     5.268642
        Cartesian components [D]:          [  2.218586,  -3.694755,   3.030718]
      RMS size of the density [Ang]:         2.629861
        Cartesian components [Ang]:        [  1.194842,   2.094713,   1.049143]
    
    Exciton analysis of the difference density matrix
      <r_h> [Ang]:                  [  0.086285,  -0.649832,   0.878503]
      <r_e> [Ang]:                  [  0.752736,   0.929365,  -0.016037]
      |<r_e - r_h>| [Ang]:            1.933447
      Hole size [Ang]:                0.122783
        Cartesian components [Ang]: [  0.070897,   0.070893,   0.070877]
      Electron size [Ang]:            3.163554
        Cartesian components [Ang]: [  1.999018,   1.897722,   1.552627]

  Singlet 3 :
  -------------------------
    NOs
      Occupation of frontier NOs:
         0.0000   1.0000   1.0000   2.0000
      Number of electrons: 40.000000
      Number of unpaired electrons: n_u =  2.00000, n_u,nl =  2.00000
      NO participation ratio (PR_NO):  2.000000
    
    NDOs
      Leading detachment eigenvalues:
        -1.0000  -0.0000
      Leading attachment eigenvalues:
         1.0000   0.0000
      Number of detached / attached electrons: p_D =  1.0000, p_A =  1.0000
      Number of involved orbitals: PR_D =  1.000000, PR_A =  1.000000
    
    Mulliken Population Analysis (State/Difference DM)
    Atom      Charge (e)              h+              e-           Del q
    --------------------------------------------------------------------
     1 O        0.373078        0.991823        0.073888        1.065711
     2 H        0.246831        0.004862       -0.110367       -0.105505
     3 H        0.218840        0.003309       -0.138151       -0.134843
     4 O       -0.558304        0.000004        0.007092        0.007097
     5 H        0.270831        0.000000       -0.009919       -0.009919
     6 H        0.294329        0.000000       -0.006133       -0.006133
     7 O       -0.561554        0.000000        0.047667        0.047668
     8 H        0.400301        0.000001        0.062085        0.062086
     9 H       -0.121505       -0.000000       -0.363722       -0.363722
    10 O       -0.524709        0.000000        0.074811        0.074811
    11 H        0.284161        0.000000       -0.023773       -0.023772
    12 H       -0.322299        0.000000       -0.613478       -0.613478
    --------------------------------------------------------------------
    Sum:        0.000000        1.000000       -1.000000        0.000000
    
    Multipole moment analysis of the density matrix
      Molecular charge:                      0.000000
      Number of electrons:                   40.000000
        Center of electronic charge [Ang]: [  0.003024,   0.024781,  -0.056887]
      Total nuclear charge:                  40.000000
        Center of nuclear charge [Ang]:    [  0.034554,   0.018780,  -0.012035]
      Dipole moment [D]:                     10.596311
        Cartesian components [D]:          [  6.057673,  -1.152877,   8.617267]
      RMS size of the density [Ang]:         2.642635
        Cartesian components [Ang]:        [  1.162086,   2.120498,   1.066098]
    
    Exciton analysis of the difference density matrix
      <r_h> [Ang]:                  [  0.086285,  -0.649832,   0.878503]
      <r_e> [Ang]:                  [ -0.046540,   0.400160,  -1.179125]
      |<r_e - r_h>| [Ang]:            2.313862
      Hole size [Ang]:                0.122783
        Cartesian components [Ang]: [  0.070897,   0.070893,   0.070877]
      Electron size [Ang]:            3.553101
        Cartesian components [Ang]: [  1.204811,   2.935862,   1.598021]

  Singlet 4 :
  -------------------------
    NOs
      Occupation of frontier NOs:
         0.0000   1.0000   1.0000   2.0000
      Number of electrons: 40.000000
      Number of unpaired electrons: n_u =  2.00000, n_u,nl =  2.00000
      NO participation ratio (PR_NO):  2.000000
    
    NDOs
      Leading detachment eigenvalues:
        -1.0000  -0.0000
      Leading attachment eigenvalues:
         1.0000   0.0000
      Number of detached / attached electrons: p_D =  1.0000, p_A =  1.0000
      Number of involved orbitals: PR_D =  1.000000, PR_A =  1.000000
    
    Mulliken Population Analysis (State/Difference DM)
    Atom      Charge (e)              h+              e-           Del q
    --------------------------------------------------------------------
     1 O        0.386937        0.991823        0.087747        1.079570
     2 H        0.389182        0.004862        0.031983        0.036845
     3 H       -0.261792        0.003309       -0.618783       -0.615474
     4 O       -0.487974        0.000004        0.077423        0.077427
     5 H        0.064914        0.000000       -0.215837       -0.215836
     6 H        0.169927        0.000000       -0.130535       -0.130535
     7 O       -0.585421        0.000000        0.023801        0.023801
     8 H        0.296308        0.000001       -0.041907       -0.041906
     9 H        0.096312       -0.000000       -0.145905       -0.145905
    10 O       -0.635131        0.000000       -0.035611       -0.035611
    11 H        0.261111        0.000000       -0.046823       -0.046822
    12 H        0.305627        0.000000        0.014448        0.014448
    --------------------------------------------------------------------
    Sum:        0.000000        1.000000       -1.000000        0.000000
    
    Multipole moment analysis of the density matrix
      Molecular charge:                      0.000000
      Number of electrons:                   40.000000
        Center of electronic charge [Ang]: [  0.008442,   0.017916,  -0.018441]
      Total nuclear charge:                  40.000000
        Center of nuclear charge [Ang]:    [  0.034554,   0.018780,  -0.012035]
      Dipole moment [D]:                     5.168139
        Cartesian components [D]:          [  5.016685,   0.166088,   1.230831]
      RMS size of the density [Ang]:         2.624845
        Cartesian components [Ang]:        [  1.180410,   2.095643,   1.051059]
    
    Exciton analysis of the difference density matrix
      <r_h> [Ang]:                  [  0.086285,  -0.649832,   0.878503]
      <r_e> [Ang]:                  [  0.170188,   0.125559,   0.358690]
      |<r_e - r_h>| [Ang]:            0.937271
      Hole size [Ang]:                0.122783
        Cartesian components [Ang]: [  0.070897,   0.070893,   0.070877]
      Electron size [Ang]:            3.182823
        Cartesian components [Ang]: [  1.773183,   2.135479,   1.557535]

  Singlet 5 :
  -------------------------
    NOs
      Occupation of frontier NOs:
         0.0000   1.0000   1.0000   2.0000
      Number of electrons: 40.000000
      Number of unpaired electrons: n_u =  2.00000, n_u,nl =  2.00000
      NO participation ratio (PR_NO):  2.000000
    
    NDOs
      Leading detachment eigenvalues:
        -1.0000  -0.0000
      Leading attachment eigenvalues:
         1.0000   0.0000
      Number of detached / attached electrons: p_D =  1.0000, p_A =  1.0000
      Number of involved orbitals: PR_D =  1.000000, PR_A =  1.000000
    
    Mulliken Population Analysis (State/Difference DM)
    Atom      Charge (e)              h+              e-           Del q
    --------------------------------------------------------------------
     1 O        0.315410        0.991823        0.016220        1.008043
     2 H        0.343421        0.004862       -0.013778       -0.008916
     3 H        0.290737        0.003309       -0.066254       -0.062946
     4 O       -0.408103        0.000004        0.157294        0.157298
     5 H       -0.170872        0.000000       -0.451623       -0.451623
     6 H        0.050605        0.000000       -0.249857       -0.249857
     7 O       -0.520042        0.000000        0.089180        0.089180
     8 H        0.374162        0.000001        0.035946        0.035948
     9 H       -0.235407       -0.000000       -0.477624       -0.477624
    10 O       -0.592822        0.000000        0.006698        0.006698
    11 H        0.306108        0.000000       -0.001825       -0.001825
    12 H        0.246803        0.000000       -0.044376       -0.044376
    --------------------------------------------------------------------
    Sum:       -0.000000        1.000000       -1.000000       -0.000000
    
    Multipole moment analysis of the density matrix
      Molecular charge:                      -0.000000
      Number of electrons:                   40.000000
        Center of electronic charge [Ang]: [  0.036269,   0.015355,  -0.022777]
      Total nuclear charge:                  40.000000
        Center of nuclear charge [Ang]:    [  0.034553,   0.018780,  -0.012035]
      Dipole moment [D]:                     2.191090
        Cartesian components [D]:          [ -0.329579,   0.658047,   2.063789]
      RMS size of the density [Ang]:         2.656519
[...]
 172  H 2   d 4     -0.00100
 173  H 2   d 5     -0.00545
 174  H 2   d 1     -0.01267
 175  H 2   d 2     -0.00577
 176  H 2   d 3     -0.00496
 177  H 2   d 4      0.00951
 178  H 2   d 5     -0.00760
 179  H 2   f 1      0.00073
 180  H 2   f 2      0.00010
 181  H 2   f 3     -0.00033
 182  H 2   f 4      0.00005
 183  H 2   f 5      0.00065
 184  H 2   f 6      0.00002
 185  H 2   f 7     -0.00010
 186  H 2   f 1      0.00057
 187  H 2   f 2     -0.00185
 188  H 2   f 3      0.00174
 189  H 2   f 4     -0.00158
 190  H 2   f 5     -0.00125
 191  H 2   f 6      0.00007
 192  H 2   f 7     -0.00261
 193  H 2   g 1      0.00031
 194  H 2   g 2     -0.00013
 195  H 2   g 3     -0.00001
 196  H 2   g 4      0.00008
 197  H 2   g 5     -0.00000
 198  H 2   g 6     -0.00012
 199  H 2   g 7      0.00005
 200  H 2   g 8     -0.00002
 201  H 2   g 9     -0.00008
 202  O 2   s        0.00022
 203  O 2   s        0.00670
 204  O 2   s       -0.00005
 205  O 2   s        0.00512
 206  O 2   s        0.14392
 207  O 2   s        0.21027
 208  O 2   px      -0.01009
 209  O 2   py      -0.00741
 210  O 2   pz       0.00798
 211  O 2   px      -0.01686
 212  O 2   py      -0.01203
 213  O 2   pz       0.01248
 214  O 2   px      -0.01378
 215  O 2   py      -0.00920
 216  O 2   pz       0.03013
 217  O 2   px       0.02932
 218  O 2   py      -0.09103
 219  O 2   pz       0.01480
 220  O 2   px       0.11750
 221  O 2   py       0.09510
 222  O 2   pz       0.03299
 223  O 2   d 1     -0.00026
 224  O 2   d 2     -0.00027
 225  O 2   d 3      0.00010
 226  O 2   d 4      0.00013
 227  O 2   d 5     -0.00017
 228  O 2   d 1      0.00008
 229  O 2   d 2      0.00084
 230  O 2   d 3      0.00026
 231  O 2   d 4     -0.00052
 232  O 2   d 5      0.00072
 233  O 2   d 1     -0.00243
 234  O 2   d 2      0.00262
 235  O 2   d 3      0.00009
 236  O 2   d 4      0.00590
 237  O 2   d 5     -0.00555
 238  O 2   d 1     -0.04200
 239  O 2   d 2      0.00154
 240  O 2   d 3      0.01300
 241  O 2   d 4     -0.00782
 242  O 2   d 5      0.04029
 243  O 2   f 1     -0.00018
 244  O 2   f 2     -0.00011
 245  O 2   f 3     -0.00021
 246  O 2   f 4      0.00014
 247  O 2   f 5     -0.00002
 248  O 2   f 6      0.00000
 249  O 2   f 7     -0.00004
 250  O 2   f 1      0.00076
 251  O 2   f 2      0.00090
 252  O 2   f 3      0.00147
 253  O 2   f 4     -0.00098
 254  O 2   f 5      0.00014
 255  O 2   f 6     -0.00006
 256  O 2   f 7     -0.00018
 257  O 2   f 1     -0.00065
 258  O 2   f 2     -0.00355
 259  O 2   f 3      0.00349
 260  O 2   f 4      0.00473
 261  O 2   f 5     -0.00253
 262  O 2   f 6      0.00499
 263  O 2   f 7      0.00105
 264  O 2   g 1     -0.00013
 265  O 2   g 2     -0.00006
 266  O 2   g 3     -0.00001
 267  O 2   g 4     -0.00007
 268  O 2   g 5      0.00001
 269  O 2   g 6     -0.00007
 270  O 2   g 7      0.00009
 271  O 2   g 8     -0.00007
 272  O 2   g 9     -0.00000
 273  O 2   g 1      0.00134
 274  O 2   g 2     -0.00020
 275  O 2   g 3      0.00074
 276  O 2   g 4      0.00077
 277  O 2   g 5      0.00006
 278  O 2   g 6      0.00022
 279  O 2   g 7     -0.00114
 280  O 2   g 8      0.00102
 281  O 2   g 9     -0.00035
 282  O 2   h 1      0.00011
 283  O 2   h 2     -0.00007
 284  O 2   h 3      0.00008
 285  O 2   h 4      0.00008
 286  O 2   h 5     -0.00001
 287  O 2   h 6     -0.00004
 288  O 2   h 7      0.00015
 289  O 2   h 8     -0.00010
 290  O 2   h 9     -0.00003
 291  O 2   h10      0.00009
 292  O 2   h11     -0.00003
 293  H 3   s       -0.00187
 294  H 3   s        0.00252
 295  H 3   s        0.02919
 296  H 3   s       -0.21215
 297  H 3   s       -0.02871
 298  H 3   px      -0.00004
 299  H 3   py       0.00025
 300  H 3   pz       0.00004
 301  H 3   px      -0.00072
 302  H 3   py      -0.00270
 303  H 3   pz       0.00016
 304  H 3   px       0.00273
 305  H 3   py       0.01479
 306  H 3   pz      -0.00288
 307  H 3   px       0.00736
 308  H 3   py       0.06323
 309  H 3   pz       0.00327
 310  H 3   d 1      0.00017
 311  H 3   d 2      0.00028
 312  H 3   d 3      0.00004
 313  H 3   d 4      0.00035
 314  H 3   d 5     -0.00015
 315  H 3   d 1     -0.00132
 316  H 3   d 2     -0.00163
 317  H 3   d 3      0.00025
 318  H 3   d 4     -0.00159
 319  H 3   d 5      0.00117
 320  H 3   d 1     -0.01341
 321  H 3   d 2     -0.01031
 322  H 3   d 3      0.01538
 323  H 3   d 4      0.00313
 324  H 3   d 5      0.01801
 325  H 3   f 1      0.00003
 326  H 3   f 2     -0.00001
 327  H 3   f 3     -0.00003
 328  H 3   f 4      0.00011
 329  H 3   f 5      0.00013
 330  H 3   f 6      0.00020
 331  H 3   f 7      0.00009
 332  H 3   f 1     -0.00151
 333  H 3   f 2      0.00142
 334  H 3   f 3     -0.00200
 335  H 3   f 4     -0.00288
 336  H 3   f 5     -0.00196
 337  H 3   f 6     -0.00341
 338  H 3   f 7     -0.00386
 339  H 3   g 1      0.00024
 340  H 3   g 2      0.00015
 341  H 3   g 3      0.00020
 342  H 3   g 4      0.00028
 343  H 3   g 5     -0.00007
 344  H 3   g 6      0.00011
 345  H 3   g 7     -0.00006
 346  H 3   g 8      0.00013
 347  H 3   g 9      0.00001
 348  H 4   s        0.00025
 349  H 4   s        0.00087
 350  H 4   s       -0.02649
 351  H 4   s       -0.28649
 352  H 4   s        0.22985
 353  H 4   px       0.00067
 354  H 4   py      -0.00078
 355  H 4   pz      -0.00022
 356  H 4   px      -0.00311
 357  H 4   py       0.00321
 358  H 4   pz       0.00146
 359  H 4   px       0.01764
 360  H 4   py      -0.01242
 361  H 4   pz      -0.01382
 362  H 4   px       0.07547
 363  H 4   py      -0.01478
 364  H 4   pz      -0.06083
 365  H 4   d 1     -0.00022
 366  H 4   d 2      0.00008
 367  H 4   d 3      0.00036
 368  H 4   d 4      0.00015
 369  H 4   d 5      0.00018
 370  H 4   d 1     -0.00037
 371  H 4   d 2     -0.00018
 372  H 4   d 3     -0.00195
 373  H 4   d 4     -0.00105
 374  H 4   d 5     -0.00029
 375  H 4   d 1      0.00303
 376  H 4   d 2     -0.00382
 377  H 4   d 3     -0.00010
 378  H 4   d 4      0.01947
 379  H 4   d 5     -0.01118
 380  H 4   f 1      0.00013
 381  H 4   f 2     -0.00011
 382  H 4   f 3      0.00011
 383  H 4   f 4     -0.00009
 384  H 4   f 5      0.00003
 385  H 4   f 6      0.00026
 386  H 4   f 7      0.00003
 387  H 4   f 1     -0.00006
 388  H 4   f 2      0.00098
 389  H 4   f 3     -0.00131
 390  H 4   f 4      0.00096
 391  H 4   f 5      0.00129
 392  H 4   f 6     -0.00316
 393  H 4   f 7      0.00204
 394  H 4   g 1      0.00000
 395  H 4   g 2     -0.00006
 396  H 4   g 3      0.00013
 397  H 4   g 4      0.00001
 398  H 4   g 5      0.00008
 399  H 4   g 6     -0.00008
 400  H 4   g 7     -0.00010
 401  H 4   g 8      0.00017
 402  H 4   g 9     -0.00022
 403  O 3   s        0.00172
 404  O 3   s       -0.03313
 405  O 3   s       -0.00082
 406  O 3   s       -0.01532
 407  O 3   s       -0.09543
 408  O 3   s       -0.45532
 409  O 3   px      -0.01995
 410  O 3   py       0.02147
 411  O 3   pz       0.01671
 412  O 3   px      -0.02848
 413  O 3   py       0.03668
 414  O 3   pz       0.02485
 415  O 3   px      -0.05573
 416  O 3   py       0.04400
 417  O 3   pz       0.04339
 418  O 3   px      -0.17582
 419  O 3   py      -0.06615
 420  O 3   pz       0.08744
 421  O 3   px      -0.04545
 422  O 3   py       0.24345
 423  O 3   pz       0.12809
 424  O 3   d 1     -0.00022
 425  O 3   d 2     -0.00022
 426  O 3   d 3      0.00036
 427  O 3   d 4      0.00033
 428  O 3   d 5      0.00011
 429  O 3   d 1      0.00155
 430  O 3   d 2      0.00141
 431  O 3   d 3     -0.00210
 432  O 3   d 4     -0.00180
 433  O 3   d 5     -0.00122
 434  O 3   d 1     -0.00933
 435  O 3   d 2     -0.00512
 436  O 3   d 3      0.01270
 437  O 3   d 4      0.01241
 438  O 3   d 5      0.00445
 439  O 3   d 1      0.00437
 440  O 3   d 2     -0.00116
 441  O 3   d 3      0.01824
 442  O 3   d 4      0.04845
 443  O 3   d 5     -0.01244
 444  O 3   f 1     -0.00024
 445  O 3   f 2     -0.00001
 446  O 3   f 3     -0.00020
 447  O 3   f 4     -0.00010
 448  O 3   f 5     -0.00004
 449  O 3   f 6     -0.00016
 450  O 3   f 7     -0.00022
 451  O 3   f 1      0.00120
 452  O 3   f 2     -0.00059
 453  O 3   f 3      0.00146
 454  O 3   f 4     -0.00015
 455  O 3   f 5      0.00028
 456  O 3   f 6      0.00076
 457  O 3   f 7      0.00176
 458  O 3   f 1      0.01280
 459  O 3   f 2     -0.01032
 460  O 3   f 3      0.01120
 461  O 3   f 4     -0.01206
 462  O 3   f 5     -0.00105
 463  O 3   f 6      0.01066
 464  O 3   f 7      0.00751
 465  O 3   g 1     -0.00014
 466  O 3   g 2      0.00003
 467  O 3   g 3      0.00001
 468  O 3   g 4      0.00008
 469  O 3   g 5      0.00001
 470  O 3   g 6      0.00008
 471  O 3   g 7      0.00012
 472  O 3   g 8     -0.00015
 473  O 3   g 9      0.00015
 474  O 3   g 1      0.00376
 475  O 3   g 2     -0.00271
 476  O 3   g 3      0.00258
 477  O 3   g 4     -0.00022
 478  O 3   g 5      0.00017
 479  O 3   g 6     -0.00152
 480  O 3   g 7     -0.00232
 481  O 3   g 8      0.00063
 482  O 3   g 9      0.00067
 483  O 3   h 1      0.00028
 484  O 3   h 2     -0.00045
 485  O 3   h 3      0.00035
 486  O 3   h 4     -0.00003
 487  O 3   h 5     -0.00031
 488  O 3   h 6      0.00002
 489  O 3   h 7      0.00023
 490  O 3   h 8     -0.00004
 491  O 3   h 9     -0.00023
 492  O 3   h10     -0.00024
 493  O 3   h11      0.00000
 494  H 5   s        0.00171
 495  H 5   s       -0.00563
 496  H 5   s        0.17122
 497  H 5   s       -0.01288
 498  H 5   s       -0.39112
 499  H 5   px       0.00029
 500  H 5   py       0.00027
 501  H 5   pz       0.00008
 502  H 5   px      -0.00160
 503  H 5   py      -0.00060
 504  H 5   pz       0.00091
 505  H 5   px      -0.03159
 506  H 5   py      -0.04209
 507  H 5   pz      -0.01029
 508  H 5   px      -0.01946
 509  H 5   py      -0.11304
 510  H 5   pz      -0.07967
 511  H 5   d 1     -0.00043
 512  H 5   d 2     -0.00066
 513  H 5   d 3      0.00004
 514  H 5   d 4     -0.00019
 515  H 5   d 5      0.00034
 516  H 5   d 1      0.00892
 517  H 5   d 2      0.00410
 518  H 5   d 3     -0.00397
 519  H 5   d 4      0.00167
 520  H 5   d 5     -0.00308
 521  H 5   d 1      0.00090
 522  H 5   d 2      0.00879
 523  H 5   d 3     -0.00364
 524  H 5   d 4      0.00231
 525  H 5   d 5      0.00602
 526  H 5   f 1     -0.00020
 527  H 5   f 2     -0.00003
 528  H 5   f 3      0.00064
 529  H 5   f 4      0.00002
 530  H 5   f 5      0.00042
 531  H 5   f 6     -0.00026
 532  H 5   f 7      0.00098
 533  H 5   f 1     -0.00164
 534  H 5   f 2     -0.00271
 535  H 5   f 3     -0.00110
 536  H 5   f 4      0.00327
 537  H 5   f 5      0.00011
 538  H 5   f 6      0.00304
 539  H 5   f 7     -0.00039
 540  H 5   g 1      0.00000
 541  H 5   g 2      0.00010
 542  H 5   g 3     -0.00008
 543  H 5   g 4     -0.00026
 544  H 5   g 5      0.00004
 545  H 5   g 6     -0.00023
 546  H 5   g 7     -0.00004
 547  H 5   g 8     -0.00012
 548  H 5   g 9     -0.00027
 549  H 6   s        0.00323
 550  H 6   s       -0.00052
 551  H 6   s        0.23451
 552  H 6   s       -0.22517
 553  H 6   s        1.25142
 554  H 6   px       0.00251
 555  H 6   py      -0.00143
 556  H 6   pz      -0.00194
 557  H 6   px      -0.00719
 558  H 6   py       0.00203
 559  H 6   pz       0.00473
 560  H 6   px       0.01517
 561  H 6   py       0.02612
 562  H 6   pz       0.00051
 563  H 6   px       0.02618
 564  H 6   py      -0.04090
 565  H 6   pz      -0.03380
 566  H 6   d 1      0.00020
 567  H 6   d 2     -0.00059
 568  H 6   d 3      0.00025
 569  H 6   d 4      0.00015
 570  H 6   d 5      0.00061
 571  H 6   d 1     -0.00491
 572  H 6   d 2      0.00699
 573  H 6   d 3     -0.00179
 574  H 6   d 4     -0.00322
 575  H 6   d 5     -0.00444
 576  H 6   d 1      0.00982
 577  H 6   d 2     -0.01140
 578  H 6   d 3      0.00354
 579  H 6   d 4      0.02154
 580  H 6   d 5     -0.00989
 581  H 6   f 1      0.00010
 582  H 6   f 2     -0.00092
 583  H 6   f 3      0.00010
 584  H 6   f 4     -0.00076
 585  H 6   f 5     -0.00018
 586  H 6   f 6     -0.00033
 587  H 6   f 7      0.00033
 588  H 6   f 1     -0.00172
 589  H 6   f 2      0.00297
 590  H 6   f 3     -0.00025
 591  H 6   f 4      0.00313
 592  H 6   f 5      0.00167
 593  H 6   f 6     -0.00235
 594  H 6   f 7      0.00190
 595  H 6   g 1      0.00021
 596  H 6   g 2     -0.00012
 597  H 6   g 3      0.00007
 598  H 6   g 4      0.00001
 599  H 6   g 5      0.00006
 600  H 6   g 6     -0.00002
 601  H 6   g 7     -0.00016
 602  H 6   g 8      0.00024
 603  H 6   g 9     -0.00007
 604  O 4   s       -0.00001
 605  O 4   s        0.00172
 606  O 4   s       -0.00120
 607  O 4   s       -0.00696
 608  O 4   s        0.21028
 609  O 4   s        0.38294
 610  O 4   px      -0.00875
 611  O 4   py      -0.02414
 612  O 4   pz       0.01800
 613  O 4   px      -0.01719
 614  O 4   py      -0.03820
 615  O 4   pz       0.03041
 616  O 4   px       0.00808
 617  O 4   py      -0.07048
 618  O 4   pz       0.03319
 619  O 4   px       0.07168
 620  O 4   py      -0.09096
 621  O 4   pz       0.00691
 622  O 4   px       0.13985
 623  O 4   py      -0.23451
 624  O 4   pz      -0.00236
 625  O 4   d 1      0.00002
 626  O 4   d 2      0.00022
 627  O 4   d 3      0.00026
 628  O 4   d 4      0.00034
 629  O 4   d 5      0.00016
 630  O 4   d 1      0.00001
 631  O 4   d 2     -0.00042
 632  O 4   d 3     -0.00157
 633  O 4   d 4     -0.00091
 634  O 4   d 5     -0.00081
 635  O 4   d 1     -0.00602
 636  O 4   d 2      0.00266
 637  O 4   d 3     -0.00522
 638  O 4   d 4      0.00042
 639  O 4   d 5     -0.00301
 640  O 4   d 1     -0.04904
 641  O 4   d 2      0.01983
 642  O 4   d 3     -0.02295
 643  O 4   d 4     -0.00586
 644  O 4   d 5      0.00883
 645  O 4   f 1      0.00011
 646  O 4   f 2      0.00003
 647  O 4   f 3     -0.00000
 648  O 4   f 4     -0.00011
 649  O 4   f 5      0.00004
 650  O 4   f 6     -0.00008
 651  O 4   f 7      0.00021
 652  O 4   f 1      0.00016
 653  O 4   f 2     -0.00019
 654  O 4   f 3      0.00087
 655  O 4   f 4      0.00071
 656  O 4   f 5     -0.00073
 657  O 4   f 6      0.00038
 658  O 4   f 7     -0.00235
 659  O 4   f 1     -0.01478
 660  O 4   f 2      0.01031
 661  O 4   f 3     -0.00078
 662  O 4   f 4     -0.00235
 663  O 4   f 5     -0.00381
 664  O 4   f 6      0.00116
 665  O 4   f 7     -0.00005
 666  O 4   g 1      0.00027
 667  O 4   g 2     -0.00020
 668  O 4   g 3      0.00007
 669  O 4   g 4      0.00001
 670  O 4   g 5      0.00003
 671  O 4   g 6      0.00005
 672  O 4   g 7      0.00013
 673  O 4   g 8      0.00005
 674  O 4   g 9      0.00001
 675  O 4   g 1     -0.00128
 676  O 4   g 2      0.00204
 677  O 4   g 3     -0.00006
 678  O 4   g 4     -0.00054
 679  O 4   g 5      0.00048
 680  O 4   g 6     -0.00037
 681  O 4   g 7     -0.00063
 682  O 4   g 8     -0.00026
 683  O 4   g 9     -0.00062
 684  O 4   h 1      0.00022
 685  O 4   h 2      0.00013
 686  O 4   h 3     -0.00000
 687  O 4   h 4     -0.00016
 688  O 4   h 5      0.00011
 689  O 4   h 6      0.00003
 690  O 4   h 7      0.00012
 691  O 4   h 8     -0.00002
 692  O 4   h 9      0.00006
 693  O 4   h10     -0.00017
 694  O 4   h11      0.00005
 695  H 7   s       -0.00100
 696  H 7   s        0.01330
 697  H 7   s       -0.11222
 698  H 7   s       -0.39885
 699  H 7   s       -0.29088
 700  H 7   px      -0.00021
 701  H 7   py       0.00059
 702  H 7   pz      -0.00034
 703  H 7   px      -0.00159
 704  H 7   py       0.00384
 705  H 7   pz       0.00197
 706  H 7   px       0.00026
 707  H 7   py      -0.04382
 708  H 7   pz      -0.00512
 709  H 7   px       0.02168
 710  H 7   py      -0.12745
 711  H 7   pz       0.01010
 712  H 7   d 1     -0.00030
 713  H 7   d 2     -0.00012
 714  H 7   d 3     -0.00058
 715  H 7   d 4     -0.00042
 716  H 7   d 5     -0.00084
 717  H 7   d 1      0.00126
 718  H 7   d 2      0.00122
 719  H 7   d 3      0.00376
 720  H 7   d 4      0.00153
 721  H 7   d 5      0.00680
 722  H 7   d 1      0.00935
 723  H 7   d 2     -0.00211
 724  H 7   d 3      0.01430
 725  H 7   d 4     -0.00729
 726  H 7   d 5      0.03095
 727  H 7   f 1      0.00003
 728  H 7   f 2      0.00022
 729  H 7   f 3      0.00010
 730  H 7   f 4      0.00000
 731  H 7   f 5      0.00002
 732  H 7   f 6      0.00005
 733  H 7   f 7      0.00005
 734  H 7   f 1      0.00597
 735  H 7   f 2     -0.00117
 736  H 7   f 3      0.00443
 737  H 7   f 4      0.00040
 738  H 7   f 5     -0.00090
 739  H 7   f 6     -0.00003
 740  H 7   f 7     -0.00423
 741  H 7   g 1     -0.00038
 742  H 7   g 2     -0.00000
 743  H 7   g 3     -0.00014
 744  H 7   g 4      0.00007
 745  H 7   g 5     -0.00020
 746  H 7   g 6     -0.00002
 747  H 7   g 7     -0.00030
 748  H 7   g 8      0.00002
 749  H 7   g 9     -0.00030
 750  H 8   s        0.00065
 751  H 8   s        0.00607
 752  H 8   s        0.05379
 753  H 8   s       -0.40036
 754  H 8   s        0.80415
 755  H 8   px       0.00150
 756  H 8   py       0.00133
 757  H 8   pz      -0.00072
 758  H 8   px      -0.00443
 759  H 8   py      -0.00435
 760  H 8   pz       0.00275
 761  H 8   px       0.03115
 762  H 8   py       0.01916
 763  H 8   pz      -0.01651
 764  H 8   px       0.05659
 765  H 8   py       0.10872
 766  H 8   pz      -0.05616
 767  H 8   d 1     -0.00009
 768  H 8   d 2      0.00015
 769  H 8   d 3     -0.00027
 770  H 8   d 4     -0.00051
 771  H 8   d 5      0.00023
 772  H 8   d 1      0.00037
 773  H 8   d 2     -0.00122
 774  H 8   d 3      0.00095
 775  H 8   d 4      0.00275
 776  H 8   d 5     -0.00289
 777  H 8   d 1     -0.02572
 778  H 8   d 2      0.02296
 779  H 8   d 3      0.00751
 780  H 8   d 4      0.01571
 781  H 8   d 5      0.00505
 782  H 8   f 1      0.00028
 783  H 8   f 2      0.00019
 784  H 8   f 3      0.00008
 785  H 8   f 4     -0.00039
 786  H 8   f 5      0.00007
 787  H 8   f 6     -0.00019
 788  H 8   f 7      0.00028
 789  H 8   f 1      0.00168
 790  H 8   f 2     -0.00504
 791  H 8   f 3     -0.00032
 792  H 8   f 4      0.00465
 793  H 8   f 5     -0.00021
 794  H 8   f 6      0.00002
 795  H 8   f 7     -0.00236
 796  H 8   g 1     -0.00008
 797  H 8   g 2      0.00024
 798  H 8   g 3     -0.00009
 799  H 8   g 4     -0.00019
 800  H 8   g 5      0.00008
 801  H 8   g 6     -0.00015
 802  H 8   g 7      0.00001
 803  H 8   g 8     -0.00023
 804  H 8   g 9      0.00020

 -----------------------------------------------------------------
                    Cartesian Multipole Moments
 -----------------------------------------------------------------
    Charge (ESU x 10^10)
                -0.0000
    Dipole Moment (Debye)
         X       5.4197      Y       3.8904      Z      -1.2659
       Tot       6.7905
    Quadrupole Moments (Debye-Ang)
        XX     -23.4170     XY       2.1101     YY     -27.9015
        XZ      -1.7168     YZ       5.0823     ZZ     -26.0988
    Octopole Moments (Debye-Ang^2)
       XXX      28.3862    XXY      15.7705    XYY      38.7231
       YYY      36.0845    XXZ      11.2558    XYZ       2.0778
       YYZ     -10.1700    XZZ       5.1282    YZZ       9.9547
       ZZZ      -3.7633
    Hexadecapole Moments (Debye-Ang^3)
      XXXX    -167.1411   XXXY     -31.6506   XXYY    -155.1317
      XYYY     -87.7337   YYYY    -630.6636   XXXZ     -56.9996
      XXYZ      32.9475   XYYZ      -8.7787   YYYZ      80.7521
      XXZZ     -68.7978   XYZZ      -9.9365   YYZZ    -116.9912
      XZZZ     -64.6270   YZZZ      32.4693   ZZZZ    -173.6485
 -----------------------------------------------------------------
 Total job time:  89786.49s(wall), 178640.75s(cpu) 
 Tue Dec 31 15:33:41 2024

        *************************************************************
        *                                                           *
        *  Thank you very much for using Q-Chem.  Have a nice day.  *
        *                                                           *
        *************************************************************


