                  Welcome to Q-Chem
     A Quantum Leap Into The Future Of Chemistry


 Q-Chem 6.2 (devel), Q-Chem, Inc., Pleasanton, CA (2024)

 E. Epifanovsky,  A. T. B. Gilbert,  Xintian Feng,  Joonho Lee,  Yuezhi Mao,  
 N. Mardirossian,  P. Pokhilko,  A. White,  M. Wormit,  M. P. Coons,  
 A. L. Dempwolff,  Zhengting Gan,  D. Hait,  P. R. Horn,  L. D. Jacobson,  
 I. Kaliman,  J. Kussmann,  A. W. Lange,  Ka Un Lao,  D. S. Levine,  Jie Liu,  
 S. C. McKenzie,  A. F. Morrison,  K. D. Nanda,  F. Plasser,  D. R. Rehn,  
 M. L. Vidal,  Zhi-Qiang You,  Ying Zhu,  Huseyin Aksu,  B. Alam,  
 B. Albrecht,  A. Aldossary,  E. Alguire,  J. H. Andersen,  
 J. E. Arias-Martinez,  V. Athavale,  D. Barton,  K. Begam,  A. Behn,  
 N. Bellonzi,  Y. A. Bernard,  E. J. Berquist,  H. Burton,  A. Carreras,  
 K. Carter-Fenk,  Mathew Chow,  Romit Chakraborty,  Chandrima Chakravarty,  
 Junhan Chen,  A. D. Chien,  K. D. Closser,  V. Cofer-Shabica,  L. Cunha,  
 S. Dasgupta,  Jia Deng,  Joseph Dickinson,  M. de Wergifosse,  
 M. Diedenhofen,  Hainam Do,  Wenjie Dou,  S. Ehlert,  Po-Tung Fang,  
 S. Fatehi,  Qingguo Feng,  Jonathan Fetherolf,  T. Friedhoff,  
 Thomas Froitzheim,  Sarai Folkestad,  B. Ganoe,  J. Gayvert,  Qinghui Ge,  
 G. Gidofalvi,  M. Gimferrer,  M. Goldey,  Montgomery Gray,  J. Gomes,  
 C. Gonzalez-Espinoza,  S. Gulania,  A. Gunina,  J. A. Gyamfi,  
 M. W. D. Hanson-Heine,  P. H. P. Harbach,  A. W. Hauser,  M. F. Herbst,  
 M. Hernandez Vera,  M. Hodecker,  Z. C. Holden,  S. Houck,  Xunkun Huang,  
 Kerwin Hui,  B. C. Huynh,  K. Ikeda,  M. Ivanov,  Nayanthara K. Jayadev,  
 Hyunjun Ji,  Zuxin Jin,  Hanjie Jiang,  Subrata Jana,  B. Kaduk,  
 S. Kaehler,  R. Kang,  K. Khistyaev,  Jaehoon Kim,  Yongbin Kim,  
 P. Klunzinger,  Z. Koczor-Benda,  Joong Hoon Koh,  D. Kosenkov,  
 Saikiran Kotaru,  L. Koulias,  T. Kowalczyk,  C. M. Krauter,  K. Kue,  
 A. Kunitsa,  T. Kus,  A. Landau,  K. V. Lawler,  D. Lefrancois,  S. Lehtola,  
 Rain Li,  Shaozhi Li,  Tao E. Li,  Yi-Pei Li,  Jiashu Liang,  M. Liebenthal,  
 Hung-Hsuan Lin,  You-Sheng Lin,  Fenglai Liu,  Kuan-Yu Liu,  Xiao Liu,  
 M. Loipersberger,  A. Luenser,  C. Malbon,  Aniket Mandal,  Manisha,  
 A. Manjanath,  P. Manohar,  E. Mansoor,  S. F. Manzer,  Shan-Ping Mao,  
 A. V. Marenich,  T. Markovich,  S. Mason,  F. Matz,  S. A. Maurer,  
 Samuel May,  Alexandra McIsaac,  P. F. McLaughlin,  M. F. S. J. Menger,  
 J.-M. Mewes,  S. A. Mewes,  P. Morgante,  Mohammad Mostafanejad,  
 Madhubani Mukherjee,  J. W. Mullinax,  Quyen Nguyen,  Avik Kumar Ojha,  
 K. J. Oosterbaan,  Eno Paenurk,  Xiaoliang Pan,  G. Paran,  V. Parravicini,  
 Alexander C. Paul,  Suranjan K. Paul,  F. Pavosevic,  Zheng Pei,  S. Prager,  
 E. I. Proynov,  E. Ramos,  B. Rana,  A. E. Rask,  A. Rettig,  R. M. Richard,  
 F. Rob,  E. Rossomme,  T. Scheele,  M. Scheurer,  M. Schneider,  
 P. E. Schneider,  Tim K. Schramm,  N. Sergueev,  S. M. Sharada,  
 Hengyuan Shen,  W. Skomorowski,  D. W. Small,  C. J. Stein,  
 Alistair J. Sterling,  Yingli Su,  Yu-Chuan Su,  E. J. Sundstrom,  
 J. Talbot,  Zhen Tao,  J. Thirman,  Hung-Yi Tsai,  T. Tsuchimochi,  
 N. M. Tubman,  C. Utku,  S. P. Veccham,  O. Vydrov,  Rahel Weiss,  
 J. Wenzel,  Jonathan Wong,  J. Witte,  H. Wu,  Yanze Wu,  A. Yamada,  
 Chou-Hsun Yang,  Kun Yao,  S. Yeganeh,  S. R. Yost,  Qi Yu,  A. Zech,  
 F. Zeller,  Chongxiao Zhao,  Igor Ying Zhang,  Xing Zhang,  Yu Zhang,  
 D. Zuev,  A. Aspuru-Guzik,  A. T. Bell,  N. A. Besley,  K. B. Bravaya,  
 B. R. Brooks,  D. Casanova,  Jeng-Da Chai,  Hsing-Ta Chen,  S. Coriani,  
 C. J. Cramer,  A. E. DePrince, III,  R. A. DiStasio Jr.,  A. Dreuw,  
 B. D. Dunietz,  T. R. Furlani,  W. A. Goddard III,  S. Grimme,  
 S. Hammes-Schiffer,  T. Head-Gordon,  W. J. Hehre,  Chao-Ping Hsu,  
 T.-C. Jagau,  Yousung Jung,  A. Klamt,  Jing Kong,  D. S. Lambrecht,  
 Xiangyuan Li,  WanZhen Liang,  N. J. Mayhall,  C. W. McCurdy,  J. B. Neaton,  
 T. Neudecker,  C. Ochsenfeld,  J. A. Parkhill,  R. Peverati,  
 V. A. Rassolov,  Haisheng Ren,  Yihan Shao,  L. V. Slipchenko,  
 R. P. Steele,  J. E. Subotnik,  A. J. W. Thom,  A. Tkatchenko,  
 D. G. Truhlar,  T. Van Voorhis,  Fan Wang,  T. A. Wesolowski,  K. B. Whaley,  
 H. L. Woodcock III,  P. M. Zimmerman,  S. Faraji,  P. M. W. Gill,  
 M. Head-Gordon,  J. M. Herbert,  A. I. Krylov

 Contributors to earlier versions of Q-Chem not listed above: 
 R. D. Adamson,  B. Austin,  R. Baer,  J. Baker,  G. J. O. Beran,  
 K. Brandhorst,  S. T. Brown,  E. F. C. Byrd,  Arup K. Chakraborty,  
 G. K. L. Chan,  Chun-Min Chang,  Yunqing Chen,  C.-L. Cheng,  
 Siu Hung Chien,  D. M. Chipman,  D. L. Crittenden,  H. Dachsel,  
 R. J. Doerksen,  A. D. Dutoi,  R. G. Edgar,  J. Fosso-Tande,  
 L. Fusti-Molnar,  D. Ghosh,  A. Ghysels,  A. Golubeva-Zadorozhnaya,  
 J. Gonthier,  M. S. Gordon,  S. R. Gwaltney,  G. Hawkins,  J. E. Herr,  
 A. Heyden,  S. Hirata,  E. G. Hohenstein,  G. Kedziora,  F. J. Keil,  
 C. Kelley,  Jihan Kim,  R. A. King,  R. Z. Khaliullin,  P. P. Korambath,  
 W. Kurlancheek,  A. Laurent,  A. M. Lee,  M. S. Lee,  S. V. Levchenko,  
 Ching Yeh Lin,  D. Liotard,  E. Livshits,  R. C. Lochan,  I. Lotan,  
 L. A. Martinez-Martinez,  P. E. Maslen,  N. Nair,  D. P. O'Neill,  
 D. Neuhauser,  E. Neuscamman,  C. M. Oana,  R. Olivares-Amaya,  R. Olson,  
 T. M. Perrine,  B. Peters,  P. A. Pieniazek,  A. Prociuk,  Y. M. Rhee,  
 J. Ritchie,  M. A. Rohrdanz,  E. Rosta,  N. J. Russ,  H. F. Schaefer III,  
 M. W. Schmidt,  N. E. Schultz,  S. Sharma,  N. Shenvi,  C. D. Sherrill,  
 A. C. Simmonett,  A. Sodt,  T. Stein,  D. Stuck,  K. S. Thanthiriwatte,  
 V. Vanovschi,  L. Vogt,  Tao Wang,  A. Warshel,  M. A. Watson,  
 C. F. Williams,  Q. Wu,  X. Xu,  Jun Yang,  W. Zhang,  Yan Zhao

   Please cite Q-Chem as follows:
  "Software for the frontiers of quantum chemistry:
   An overview of developments in the Q-Chem 5 package"
   J. Chem. Phys. 155, 084801 (2021)
   https://doi.org/10.1063/5.0055522 (open access)

 Q-Chem 6.2.2 for Intel X86 EM64T Linux

 Parts of Q-Chem use Armadillo 9.900.5 (Nocturnal Misbehaviour).
 http://arma.sourceforge.net/

 Q-Chem begins on Mon Dec 30 14:38:04 2024  

 Host: compute-0-15.local
0

     Scratch files written to /scratch/keith/A1D2_1//
 Processing $rem in /home/keith/software/qchem/qchem_622/config/preferences:
 Processing $rem in /home/keith/.qchemrc:

 Checking the input file for inconsistencies... 	...done.

--------------------------------------------------------------
User input:
--------------------------------------------------------------
$molecule
read
$end

$rem
method                    b3lyp 
basis                     cc-pv5z 
mem_total                 63000
mem_static                8000
thresh                    12
scf_convergence           8
xc_grid                   000075000302
max_scf_cycles            2000
symmetry                  false
sym_ignore                true
scf_guess                 read
skip_scfman               true
cis_n_roots               150
cis_triplets              false
rpa                       false 
trnss                     true
trtype                    3
n_sol                     1
nto_pairs                 2
gui                       2
print_orbitals            true
state_analysis            true
$end

$solute 
4 
$end
--------------------------------------------------------------
 ----------------------------------------------------------------
             Standard Nuclear Orientation (Angstroms)
    I     Atom           X                Y                Z
 ----------------------------------------------------------------
    1      O       9.0019000000    -0.1083900000     1.0267100000
    2      H       9.1659000000    -0.9063900000     0.4877100000
    3      H       8.1679000000     0.2116100000     0.6197100000
    4      O     -15.3831000000    -2.0999900000    -0.6202900000
    5      H     -15.8021000000    -2.9438000000    -0.7262900000
    6      H     -14.5111000000    -2.2966700000    -0.2002900000
    7      O     -14.3271000000     1.1120100000     1.5607100000
    8      H     -15.1961000000     0.7325100000     1.5117100000
    9      H     -13.5911000000     0.5688100000     1.3287100000
   10      O       8.0639000000     2.6348100000    -1.4822900000
   11      H       7.5400000000     1.8343100000    -1.3332900000
   12      H       8.9869000000     2.3544100000    -1.4732900000
   13      O       6.5009000000    -2.0648400000     0.3077100000
   14      H       6.3950000000    -1.0744900000     0.2787100000
   15      H       6.5178000000    -2.3091900000    -0.6432900000
   16      O       6.1994000000     0.6544100000    -0.6692900000
   17      H       5.6838000000     1.4035100000    -0.3382900000
   18      H       5.7558000000     0.3939100000    -1.4682900000
 ----------------------------------------------------------------
 Nuclear Repulsion Energy =         181.32011018 hartrees
 There are       30 alpha and       30 beta electrons
 Requested basis set is cc-pV5Z
 There are 306 shells and 1206 basis functions

 Total QAlloc Memory Limit  63000 MB
 Mega-Array Size      7821 MB
 MEM_STATIC part      8000 MB

 A cutoff of  1.0D-12 yielded  20025 shell pairs
 There are    284671 function pairs (    480920 Cartesian)
 Smallest overlap matrix eigenvalue = 3.28E-05

 Scale SEOQF with 1.000000e-02/1.000000e-01/1.000000e-01

 Standard Electronic Orientation quadrupole field applied
 Nucleus-field energy     =     0.0000000291 hartrees
 Guess MOs from SCF MO coefficient file
 Reading MOs from coefficient file
 Reading MOs from coefficient file
 Skipping gen_scfman as requested.
 MAX_CIS_SUBSPACE fits in available memory
 Direct TDDFT/TDA calculation will be performed
 Exchange:     0.2000 Hartree-Fock + 0.0800 Slater + 0.7200 B88
 Correlation:  0.1900 VWN1RPA + 0.8100 LYP
 Using Euler-Maclaurin-Lebedev (75,302) quadrature formula
 Singlet excitation energies requested
 CIS energy converged when residual is below 10e- 6
   
 ***Using a Restricted Set of Single Excitations***
   
 RCIS calculation
   
 Excitations from specified occupied orbitals
 -------------------------------------------------------------
              Orbitals in Truncated CIS space
 -------------------------------------------------------------
     4  31  32  33  34  35  36  37  38  39  40  41  42  43  44
    45  46  47  48  49  50  51  52  53  54  55  56  57  58  59
    60  61  62  63  64  65  66  67  68  69  70  71  72  73  74
    75  76  77  78  79  80  81  82  83  84  85  86  87  88  89
    90  91  92  93  94  95  96  97  98  99 100 101 102 103 104
   105 106 107 108 109 110 111 112 113 114 115 116 117 118 119
   120 121 122 123 124 125 126 127 128 129 130 131 132 133 134
   135 136 137 138 139 140 141 142 143 144 145 146 147 148 149
   150 151 152 153 154 155 156 157 158 159 160 161 162 163 164
   165 166 167 168 169 170 171 172 173 174 175 176 177 178 179
   180 181 182 183 184 185 186 187 188 189 190 191 192 193 194
   195 196 197 198 199 200 201 202 203 204 205 206 207 208 209
   210 211 212 213 214 215 216 217 218 219 220 221 222 223 224
   225 226 227 228 229 230 231 232 233 234 235 236 237 238 239
   240 241 242 243 244 245 246 247 248 249 250 251 252 253 254
   255 256 257 258 259 260 261 262 263 264 265 266 267 268 269
   270 271 272 273 274 275 276 277 278 279 280 281 282 283 284
   285 286 287 288 289 290 291 292 293 294 295 296 297 298 299
   300 301 302 303 304 305 306 307 308 309 310 311 312 313 314
   315 316 317 318 319 320 321 322 323 324 325 326 327 328 329
   330 331 332 333 334 335 336 337 338 339 340 341 342 343 344
   345 346 347 348 349 350 351 352 353 354 355 356 357 358 359
   360 361 362 363 364 365 366 367 368 369 370 371 372 373 374
   375 376 377 378 379 380 381 382 383 384 385 386 387 388 389
   390 391 392 393 394 395 396 397 398 399 400 401 402 403 404
   405 406 407 408 409 410 411 412 413 414 415 416 417 418 419
   420 421 422 423 424 425 426 427 428 429 430 431 432 433 434
   435 436 437 438 439 440 441 442 443 444 445 446 447 448 449
   450 451 452 453 454 455 456 457 458 459 460 461 462 463 464
   465 466 467 468 469 470 471 472 473 474 475 476 477 478 479
   480 481 482 483 484 485 486 487 488 489 490 491 492 493 494
   495 496 497 498 499 500 501 502 503 504 505 506 507 508 509
   510 511 512 513 514 515 516 517 518 519 520 521 522 523 524
   525 526 527 528 529 530 531 532 533 534 535 536 537 538 539
   540 541 542 543 544 545 546 547 548 549 550 551 552 553 554
   555 556 557 558 559 560 561 562 563 564 565 566 567 568 569
   570 571 572 573 574 575 576 577 578 579 580 581 582 583 584
   585 586 587 588 589 590 591 592 593 594 595 596 597 598 599
   600 601 602 603 604 605 606 607 608 609 610 611 612 613 614
   615 616 617 618 619 620 621 622 623 624 625 626 627 628 629
   630 631 632 633 634 635 636 637 638 639 640 641 642 643 644
   645 646 647 648 649 650 651 652 653 654 655 656 657 658 659
   660 661 662 663 664 665 666 667 668 669 670 671 672 673 674
   675 676 677 678 679 680 681 682 683 684 685 686 687 688 689
   690 691 692 693 694 695 696 697 698 699 700 701 702 703 704
   705 706 707 708 709 710 711 712 713 714 715 716 717 718 719
   720 721 722 723 724 725 726 727 728 729 730 731 732 733 734
   735 736 737 738 739 740 741 742 743 744 745 746 747 748 749
   750 751 752 753 754 755 756 757 758 759 760 761 762 763 764
   765 766 767 768 769 770 771 772 773 774 775 776 777 778 779
   780 781 782 783 784 785 786 787 788 789 790 791 792 793 794
   795 796 797 798 799 800 801 802 803 804 805 806 807 808 809
   810 811 812 813 814 815 816 817 818 819 820 821 822 823 824
   825 826 827 828 829 830 831 832 833 834 835 836 837 838 839
   840 841 842 843 844 845 846 847 848 849 850 851 852 853 854
   855 856 857 858 859 860 861 862 863 864 865 866 867 868 869
   870 871 872 873 874 875 876 877 878 879 880 881 882 883 884
   885 886 887 888 889 890 891 892 893 894 895 896 897 898 899
   900 901 902 903 904 905 906 907 908 909 910 911 912 913 914
   915 916 917 918 919 920 921 922 923 924 925 926 927 928 929
   930 931 932 933 934 935 936 937 938 939 940 941 942 943 944
   945 946 947 948 949 950 951 952 953 954 955 956 957 958 959
   960 961 962 963 964 965 966 967 968 969 970 971 972 973 974
   975 976 977 978 979 980 981 982 983 984 985 986 987 988 989
   990 991 992 993 994 995 996 997 998 99910001001100210031004
  100510061007100810091010101110121013101410151016101710181019
  102010211022102310241025102610271028102910301031103210331034
  103510361037103810391040104110421043104410451046104710481049
  105010511052105310541055105610571058105910601061106210631064
  106510661067106810691070107110721073107410751076107710781079
  108010811082108310841085108610871088108910901091109210931094
  109510961097109810991100110111021103110411051106110711081109
  111011111112111311141115111611171118111911201121112211231124
  112511261127112811291130113111321133113411351136113711381139
  114011411142114311441145114611471148114911501151115211531154
  115511561157115811591160116111621163116411651166116711681169
  117011711172117311741175117611771178117911801181118211831184
  118511861187118811891190119111921193119411951196119711981199
  1200120112021203120412051206
   
    Number of Occupied Orbitals =    1  out of    30
    Number of Virtual Orbitals  = 1176  out of  1176
 -------------------------------------------------------------
 Number of Roots adjusted to:         150
 ---------------------------------------------------
 Iter    Rts Conv    Rts Left    Ttl Dev     Max Dev
 ---------------------------------------------------
   1        53          97      0.012051    0.000320
   2        70          80      0.008100    0.000258
   3       146           4      0.007943    0.000258
   4       150           0      0.007943    0.000258    Roots Converged
 ---------------------------------------------------

 ---------------------------------------------------
         TDDFT/TDA Excitation Energies              
 ---------------------------------------------------

 Excited state   1: excitation energy (eV) =     518.1731
 Total energy for state   1:                  -439.80081133 au
    Multiplicity: Singlet
    Trans. Mom.: -0.0108 X  -0.0024 Y  -0.0130 Z
    Strength   :     0.0036989659
    D(    4) --> V(    1) amplitude =  0.9728

 Excited state   2: excitation energy (eV) =     519.4636
 Total energy for state   2:                  -439.75338553 au
    Multiplicity: Singlet
    Trans. Mom.: -0.0018 X   0.0162 Y   0.0173 Z
    Strength   :     0.0071912380
    D(    4) --> V(    3) amplitude =  0.7643
    D(    4) --> V(    4) amplitude = -0.5297
    D(    4) --> V(    8) amplitude = -0.2457

 Excited state   3: excitation energy (eV) =     519.6914
 Total energy for state   3:                  -439.74501419 au
    Multiplicity: Singlet
    Trans. Mom.:  0.0000 X   0.0000 Y   0.0000 Z
    Strength   :     0.0000000000
    D(    4) --> V(    2) amplitude =  1.0000

 Excited state   4: excitation energy (eV) =     519.9674
 Total energy for state   4:                  -439.73487120 au
    Multiplicity: Singlet
    Trans. Mom.: -0.0029 X   0.0092 Y  -0.0054 Z
    Strength   :     0.0015654244
    D(    4) --> V(    3) amplitude =  0.5669
    D(    4) --> V(    4) amplitude =  0.8104

 Excited state   5: excitation energy (eV) =     520.4767
 Total energy for state   5:                  -439.71615472 au
    Multiplicity: Singlet
    Trans. Mom.:  0.0107 X   0.0078 Y   0.0001 Z
    Strength   :     0.0022266496
    D(    4) --> V(    6) amplitude =  0.9373
    D(    4) --> V(    8) amplitude = -0.2476

 Excited state   6: excitation energy (eV) =     520.8001
 Total energy for state   6:                  -439.70426885 au
    Multiplicity: Singlet
    Trans. Mom.:  0.0000 X  -0.0000 Y  -0.0000 Z
    Strength   :     0.0000000000
    D(    4) --> V(    5) amplitude =  1.0000

 Excited state   7: excitation energy (eV) =     520.9594
 Total energy for state   7:                  -439.69841583 au
    Multiplicity: Singlet
    Trans. Mom.:  0.0179 X  -0.0209 Y  -0.0069 Z
    Strength   :     0.0103081368
    D(    4) --> V(    8) amplitude =  0.7278
    D(    4) --> V(   10) amplitude =  0.5797

 Excited state   8: excitation energy (eV) =     521.1246
 Total energy for state   8:                  -439.69234348 au
    Multiplicity: Singlet
    Trans. Mom.:  0.0239 X  -0.0134 Y   0.0027 Z
    Strength   :     0.0096455942
    D(    4) --> V(    6) amplitude = -0.2466
    D(    4) --> V(    8) amplitude = -0.5774
    D(    4) --> V(   10) amplitude =  0.7054
    D(    4) --> V(   11) amplitude = -0.2339

 Excited state   9: excitation energy (eV) =     521.6517
 Total energy for state   9:                  -439.67297340 au
    Multiplicity: Singlet
    Trans. Mom.: -0.0000 X  -0.0000 Y  -0.0000 Z
    Strength   :     0.0000000000
    D(    4) --> V(    7) amplitude =  1.0000

 Excited state  10: excitation energy (eV) =     522.2614
 Total energy for state  10:                  -439.65056772 au
    Multiplicity: Singlet
    Trans. Mom.: -0.0092 X   0.0103 Y  -0.0101 Z
    Strength   :     0.0037305458
    D(    4) --> V(   10) amplitude =  0.3321
    D(    4) --> V(   11) amplitude =  0.9190

 Excited state  11: excitation energy (eV) =     522.3719
 Total energy for state  11:                  -439.64650891 au
    Multiplicity: Singlet
    Trans. Mom.:  0.0000 X   0.0000 Y   0.0000 Z
    Strength   :     0.0000000000
    D(    4) --> V(    9) amplitude =  1.0000

 Excited state  12: excitation energy (eV) =     522.8464
 Total energy for state  12:                  -439.62906984 au
    Multiplicity: Singlet
    Trans. Mom.: -0.0045 X  -0.0108 Y  -0.0035 Z
    Strength   :     0.0019019682
    D(    4) --> V(   12) amplitude =  0.9697

 Excited state  13: excitation energy (eV) =     523.7110
 Total energy for state  13:                  -439.59729701 au
    Multiplicity: Singlet
    Trans. Mom.:  0.0113 X  -0.0071 Y   0.0200 Z
    Strength   :     0.0074346022
    D(    4) --> V(   13) amplitude =  0.8345
    D(    4) --> V(   15) amplitude = -0.4489

 Excited state  14: excitation energy (eV) =     524.1291
 Total energy for state  14:                  -439.58193147 au
    Multiplicity: Singlet
    Trans. Mom.: -0.0166 X   0.0079 Y  -0.0008 Z
    Strength   :     0.0043284929
    D(    4) --> V(   13) amplitude =  0.4844
    D(    4) --> V(   15) amplitude =  0.8036
    D(    4) --> V(   20) amplitude = -0.2360

 Excited state  15: excitation energy (eV) =     524.6633
 Total energy for state  15:                  -439.56229838 au
    Multiplicity: Singlet
    Trans. Mom.: -0.0136 X  -0.0234 Y  -0.0212 Z
    Strength   :     0.0152036222
    D(    4) --> V(   16) amplitude =  0.3019
    D(    4) --> V(   17) amplitude =  0.3332
    D(    4) --> V(   20) amplitude =  0.7695
    D(    4) --> V(   23) amplitude = -0.2130

 Excited state  16: excitation energy (eV) =     524.7882
 Total energy for state  16:                  -439.55771160 au
    Multiplicity: Singlet
    Trans. Mom.: -0.0040 X  -0.0102 Y   0.0185 Z
    Strength   :     0.0059301988
    D(    4) --> V(   16) amplitude =  0.8336
    D(    4) --> V(   17) amplitude = -0.3897

 Excited state  17: excitation energy (eV) =     525.0278
 Total energy for state  17:                  -439.54890427 au
    Multiplicity: Singlet
    Trans. Mom.:  0.0087 X   0.0058 Y  -0.0024 Z
    Strength   :     0.0014777006
    D(    4) --> V(   16) amplitude =  0.3688
    D(    4) --> V(   17) amplitude =  0.7653
    D(    4) --> V(   19) amplitude =  0.2744
    D(    4) --> V(   20) amplitude = -0.3481

 Excited state  18: excitation energy (eV) =     525.2690
 Total energy for state  18:                  -439.54003976 au
    Multiplicity: Singlet
    Trans. Mom.: -0.0000 X   0.0000 Y   0.0000 Z
    Strength   :     0.0000000000
    D(    4) --> V(   14) amplitude =  1.0000

 Excited state  19: excitation energy (eV) =     525.3222
 Total energy for state  19:                  -439.53808507 au
    Multiplicity: Singlet
    Trans. Mom.:  0.0027 X   0.0063 Y  -0.0023 Z
    Strength   :     0.0006725751
    D(    4) --> V(   17) amplitude = -0.2709
    D(    4) --> V(   19) amplitude =  0.8775
    D(    4) --> V(   20) amplitude =  0.2548

 Excited state  20: excitation energy (eV) =     525.6926
 Total energy for state  20:                  -439.52447534 au
    Multiplicity: Singlet
    Trans. Mom.:  0.0189 X   0.0059 Y  -0.0030 Z
    Strength   :     0.0051550868
    D(    4) --> V(   20) amplitude =  0.2734
    D(    4) --> V(   22) amplitude = -0.5187
    D(    4) --> V(   23) amplitude =  0.5254
    D(    4) --> V(   24) amplitude =  0.4799
    D(    4) --> V(   30) amplitude =  0.2155

 Excited state  21: excitation energy (eV) =     525.8013
 Total energy for state  21:                  -439.52047901 au
    Multiplicity: Singlet
    Trans. Mom.:  0.0032 X   0.0001 Y   0.0082 Z
    Strength   :     0.0010089846
    D(    4) --> V(   22) amplitude =  0.7551
    D(    4) --> V(   23) amplitude =  0.4865
    D(    4) --> V(   24) amplitude =  0.2726

 Excited state  22: excitation energy (eV) =     525.9292
 Total energy for state  22:                  -439.51577938 au
    Multiplicity: Singlet
    Trans. Mom.: -0.0000 X   0.0000 Y   0.0000 Z
    Strength   :     0.0000000000
    D(    4) --> V(   18) amplitude =  1.0000

 Excited state  23: excitation energy (eV) =     526.0317
 Total energy for state  23:                  -439.51201329 au
    Multiplicity: Singlet
    Trans. Mom.: -0.0004 X   0.0006 Y  -0.0016 Z
    Strength   :     0.0000400171
    D(    4) --> V(   23) amplitude = -0.5864
    D(    4) --> V(   24) amplitude =  0.7863

 Excited state  24: excitation energy (eV) =     526.3762
 Total energy for state  24:                  -439.49935203 au
    Multiplicity: Singlet
    Trans. Mom.:  0.0000 X  -0.0000 Y  -0.0000 Z
    Strength   :     0.0000000000
    D(    4) --> V(   21) amplitude =  1.0000

 Excited state  25: excitation energy (eV) =     526.4811
 Total energy for state  25:                  -439.49549642 au
    Multiplicity: Singlet
    Trans. Mom.:  0.0133 X   0.0049 Y   0.0001 Z
    Strength   :     0.0025931721
    D(    4) --> V(   23) amplitude = -0.2328
    D(    4) --> V(   28) amplitude =  0.5980
    D(    4) --> V(   30) amplitude =  0.6797

 Excited state  26: excitation energy (eV) =     526.5628
 Total energy for state  26:                  -439.49249351 au
    Multiplicity: Singlet
    Trans. Mom.:  0.0015 X  -0.0131 Y   0.0052 Z
    Strength   :     0.0025831802
    D(    4) --> V(   28) amplitude =  0.7449
    D(    4) --> V(   30) amplitude = -0.6069

 Excited state  27: excitation energy (eV) =     526.8451
 Total energy for state  27:                  -439.48211966 au
    Multiplicity: Singlet
    Trans. Mom.: -0.0000 X  -0.0000 Y  -0.0000 Z
    Strength   :     0.0000000000
    D(    4) --> V(   25) amplitude =  0.9998

 Excited state  28: excitation energy (eV) =     526.9346
 Total energy for state  28:                  -439.47883030 au
    Multiplicity: Singlet
    Trans. Mom.:  0.0000 X   0.0000 Y  -0.0000 Z
    Strength   :     0.0000000000
    D(    4) --> V(   26) amplitude =  0.9998

 Excited state  29: excitation energy (eV) =     527.0045
 Total energy for state  29:                  -439.47626247 au
    Multiplicity: Singlet
    Trans. Mom.: -0.0096 X   0.0005 Y   0.0207 Z
    Strength   :     0.0067232175
    D(    4) --> V(   31) amplitude =  0.8645
    D(    4) --> V(   32) amplitude = -0.2122
    D(    4) --> V(   36) amplitude =  0.3065

 Excited state  30: excitation energy (eV) =     527.1469
 Total energy for state  30:                  -439.47102783 au
    Multiplicity: Singlet
    Trans. Mom.: -0.0000 X  -0.0000 Y  -0.0000 Z
    Strength   :     0.0000000000
    D(    4) --> V(   27) amplitude =  0.9999

 Excited state  31: excitation energy (eV) =     527.3493
 Total energy for state  31:                  -439.46359132 au
    Multiplicity: Singlet
    Trans. Mom.:  0.0061 X  -0.0019 Y  -0.0040 Z
    Strength   :     0.0007316906
    D(    4) --> V(   31) amplitude =  0.3174
    D(    4) --> V(   32) amplitude =  0.8782
    D(    4) --> V(   33) amplitude =  0.2228

 Excited state  32: excitation energy (eV) =     527.4464
 Total energy for state  32:                  -439.46002135 au
    Multiplicity: Singlet
    Trans. Mom.: -0.0000 X   0.0000 Y  -0.0000 Z
    Strength   :     0.0000000000
    D(    4) --> V(   29) amplitude =  1.0000

 Excited state  33: excitation energy (eV) =     527.7418
 Total energy for state  33:                  -439.44916898 au
    Multiplicity: Singlet
    Trans. Mom.:  0.0037 X   0.0032 Y  -0.0031 Z
    Strength   :     0.0004322075
    D(    4) --> V(   34) amplitude =  0.9208

 Excited state  34: excitation energy (eV) =     527.7776
 Total energy for state  34:                  -439.44784998 au
    Multiplicity: Singlet
    Trans. Mom.:  0.0037 X   0.0005 Y  -0.0053 Z
    Strength   :     0.0005413371
    D(    4) --> V(   32) amplitude = -0.3501
    D(    4) --> V(   33) amplitude =  0.8449
    D(    4) --> V(   34) amplitude =  0.2344

 Excited state  35: excitation energy (eV) =     527.9905
 Total energy for state  35:                  -439.44002760 au
    Multiplicity: Singlet
    Trans. Mom.: -0.0086 X   0.0088 Y   0.0079 Z
    Strength   :     0.0027605889
    D(    4) --> V(   31) amplitude = -0.2399
    D(    4) --> V(   33) amplitude =  0.3036
    D(    4) --> V(   36) amplitude =  0.8685

 Excited state  36: excitation energy (eV) =     528.3128
 Total energy for state  36:                  -439.42818536 au
    Multiplicity: Singlet
    Trans. Mom.: -0.0020 X   0.0120 Y  -0.0003 Z
    Strength   :     0.0019112204
    D(    4) --> V(   33) amplitude = -0.2370
    D(    4) --> V(   38) amplitude =  0.8907
    D(    4) --> V(   39) amplitude =  0.2809

 Excited state  37: excitation energy (eV) =     528.5658
 Total energy for state  37:                  -439.41888429 au
    Multiplicity: Singlet
    Trans. Mom.: -0.0109 X   0.0258 Y   0.0017 Z
    Strength   :     0.0101982218
    D(    4) --> V(   38) amplitude = -0.2581
    D(    4) --> V(   39) amplitude =  0.5973
    D(    4) --> V(   41) amplitude =  0.6809

 Excited state  38: excitation energy (eV) =     528.6523
 Total energy for state  38:                  -439.41570791 au
    Multiplicity: Singlet
    Trans. Mom.:  0.0000 X   0.0000 Y   0.0000 Z
    Strength   :     0.0000000000
    D(    4) --> V(   35) amplitude =  1.0000

 Excited state  39: excitation energy (eV) =     528.8846
 Total energy for state  39:                  -439.40716939 au
    Multiplicity: Singlet
    Trans. Mom.:  0.0118 X  -0.0040 Y  -0.0083 Z
    Strength   :     0.0028885868
    D(    4) --> V(   39) amplitude =  0.7042
    D(    4) --> V(   41) amplitude = -0.6275

 Excited state  40: excitation energy (eV) =     529.0579
 Total energy for state  40:                  -439.40080276 au
    Multiplicity: Singlet
    Trans. Mom.:  0.0000 X   0.0000 Y  -0.0000 Z
    Strength   :     0.0000000000
    D(    4) --> V(   37) amplitude =  1.0000

 Excited state  41: excitation energy (eV) =     529.5997
 Total energy for state  41:                  -439.38089031 au
    Multiplicity: Singlet
    Trans. Mom.:  0.0002 X  -0.0066 Y   0.0012 Z
    Strength   :     0.0005794443
    D(    4) --> V(   41) amplitude =  0.2405
    D(    4) --> V(   43) amplitude =  0.8336
    D(    4) --> V(   44) amplitude =  0.4515

 Excited state  42: excitation energy (eV) =     529.6732
 Total energy for state  42:                  -439.37818873 au
    Multiplicity: Singlet
    Trans. Mom.: -0.0000 X  -0.0000 Y   0.0000 Z
    Strength   :     0.0000000000
    D(    4) --> V(   40) amplitude =  1.0000

 Excited state  43: excitation energy (eV) =     529.8085
 Total energy for state  43:                  -439.37321778 au
    Multiplicity: Singlet
    Trans. Mom.:  0.0102 X  -0.0013 Y  -0.0016 Z
    Strength   :     0.0014011542
    D(    4) --> V(   43) amplitude = -0.4912
    D(    4) --> V(   44) amplitude =  0.8394

 Excited state  44: excitation energy (eV) =     530.2806
 Total energy for state  44:                  -439.35586714 au
    Multiplicity: Singlet
    Trans. Mom.: -0.0000 X   0.0000 Y   0.0000 Z
    Strength   :     0.0000000000
    D(    4) --> V(   42) amplitude =  1.0000

 Excited state  45: excitation energy (eV) =     530.5059
 Total energy for state  45:                  -439.34758925 au
    Multiplicity: Singlet
    Trans. Mom.:  0.0029 X   0.0030 Y   0.0025 Z
    Strength   :     0.0003057745
    D(    4) --> V(   46) amplitude =  0.9183
    D(    4) --> V(   48) amplitude = -0.2838

 Excited state  46: excitation energy (eV) =     530.5610
 Total energy for state  46:                  -439.34556396 au
    Multiplicity: Singlet
    Trans. Mom.:  0.0059 X  -0.0036 Y  -0.0067 Z
    Strength   :     0.0011999106
    D(    4) --> V(   46) amplitude =  0.3068
    D(    4) --> V(   48) amplitude =  0.8956
    D(    4) --> V(   49) amplitude = -0.2691

 Excited state  47: excitation energy (eV) =     530.7858
 Total energy for state  47:                  -439.33730338 au
    Multiplicity: Singlet
    Trans. Mom.: -0.0000 X  -0.0000 Y   0.0000 Z
    Strength   :     0.0000000000
    D(    4) --> V(   45) amplitude =  1.0000

 Excited state  48: excitation energy (eV) =     530.8354
 Total energy for state  48:                  -439.33547803 au
    Multiplicity: Singlet
    Trans. Mom.: -0.0121 X   0.0048 Y  -0.0045 Z
    Strength   :     0.0024579941
    D(    4) --> V(   48) amplitude =  0.2795
    D(    4) --> V(   49) amplitude =  0.9309

 Excited state  49: excitation energy (eV) =     531.3897
 Total energy for state  49:                  -439.31510813 au
    Multiplicity: Singlet
    Trans. Mom.: -0.0000 X  -0.0000 Y  -0.0000 Z
    Strength   :     0.0000000000
    D(    4) --> V(   47) amplitude =  1.0000

 Excited state  50: excitation energy (eV) =     531.4979
 Total energy for state  50:                  -439.31113173 au
    Multiplicity: Singlet
    Trans. Mom.: -0.0038 X   0.0021 Y  -0.0087 Z
    Strength   :     0.0012410874
    D(    4) --> V(   51) amplitude =  0.9604

 Excited state  51: excitation energy (eV) =     531.9167
 Total energy for state  51:                  -439.29574182 au
    Multiplicity: Singlet
    Trans. Mom.:  0.0053 X  -0.0099 Y   0.0043 Z
    Strength   :     0.0018870724
    D(    4) --> V(   52) amplitude =  0.9708

 Excited state  52: excitation energy (eV) =     531.9896
 Total energy for state  52:                  -439.29306233 au
    Multiplicity: Singlet
    Trans. Mom.:  0.0000 X  -0.0000 Y   0.0000 Z
    Strength   :     0.0000000000
    D(    4) --> V(   50) amplitude =  1.0000

 Excited state  53: excitation energy (eV) =     532.7829
 Total energy for state  53:                  -439.26390903 au
    Multiplicity: Singlet
    Trans. Mom.:  0.0000 X   0.0000 Y  -0.0000 Z
    Strength   :     0.0000000000
    D(    4) --> V(   53) amplitude =  1.0000

 Excited state  54: excitation energy (eV) =     532.8180
 Total energy for state  54:                  -439.26262100 au
    Multiplicity: Singlet
    Trans. Mom.: -0.0003 X  -0.0080 Y   0.0079 Z
    Strength   :     0.0016576235
    D(    4) --> V(   54) amplitude =  0.9706

 Excited state  55: excitation energy (eV) =     533.4864
 Total energy for state  55:                  -439.23805698 au
    Multiplicity: Singlet
    Trans. Mom.: -0.0104 X   0.0013 Y   0.0007 Z
    Strength   :     0.0014366611
    D(    4) --> V(   56) amplitude =  0.9849

 Excited state  56: excitation energy (eV) =     533.7012
 Total energy for state  56:                  -439.23016502 au
    Multiplicity: Singlet
    Trans. Mom.: -0.0053 X  -0.0001 Y  -0.0005 Z
    Strength   :     0.0003725326
    D(    4) --> V(   58) amplitude =  0.9639

 Excited state  57: excitation energy (eV) =     533.9543
 Total energy for state  57:                  -439.22086387 au
    Multiplicity: Singlet
    Trans. Mom.: -0.0000 X  -0.0000 Y   0.0000 Z
    Strength   :     0.0000000000
    D(    4) --> V(   55) amplitude =  1.0000

 Excited state  58: excitation energy (eV) =     534.4146
 Total energy for state  58:                  -439.20394572 au
    Multiplicity: Singlet
    Trans. Mom.: -0.0000 X  -0.0000 Y   0.0000 Z
    Strength   :     0.0000000000
    D(    4) --> V(   57) amplitude =  1.0000

 Excited state  59: excitation energy (eV) =     534.5285
 Total energy for state  59:                  -439.19975969 au
    Multiplicity: Singlet
    Trans. Mom.: -0.0015 X  -0.0015 Y  -0.0046 Z
    Strength   :     0.0003317839
    D(    4) --> V(   59) amplitude =  0.9660

 Excited state  60: excitation energy (eV) =     535.3768
 Total energy for state  60:                  -439.16858483 au
    Multiplicity: Singlet
    Trans. Mom.: -0.0014 X  -0.0032 Y   0.0090 Z
    Strength   :     0.0012321613
    D(    4) --> V(   61) amplitude =  0.9119
    D(    4) --> V(   62) amplitude =  0.3428

 Excited state  61: excitation energy (eV) =     535.4248
 Total energy for state  61:                  -439.16682287 au
    Multiplicity: Singlet
    Trans. Mom.: -0.0000 X  -0.0000 Y   0.0000 Z
    Strength   :     0.0000000000
    D(    4) --> V(   60) amplitude =  1.0000

 Excited state  62: excitation energy (eV) =     535.4777
 Total energy for state  62:                  -439.16487971 au
    Multiplicity: Singlet
    Trans. Mom.: -0.0018 X   0.0053 Y  -0.0026 Z
    Strength   :     0.0004959489
    D(    4) --> V(   61) amplitude = -0.3406
    D(    4) --> V(   62) amplitude =  0.9167

 Excited state  63: excitation energy (eV) =     535.8218
 Total energy for state  63:                  -439.15223250 au
    Multiplicity: Singlet
    Trans. Mom.: -0.0173 X  -0.0038 Y  -0.0141 Z
    Strength   :     0.0067377483
    D(    4) --> V(   64) amplitude =  0.9565

 Excited state  64: excitation energy (eV) =     536.4636
 Total energy for state  64:                  -439.12864571 au
    Multiplicity: Singlet
    Trans. Mom.:  0.0049 X   0.0100 Y  -0.0021 Z
    Strength   :     0.0016755035
    D(    4) --> V(   65) amplitude =  0.8777
    D(    4) --> V(   66) amplitude = -0.4258

 Excited state  65: excitation energy (eV) =     536.6314
 Total energy for state  65:                  -439.12248111 au
    Multiplicity: Singlet
    Trans. Mom.: -0.0000 X   0.0000 Y   0.0000 Z
    Strength   :     0.0000000000
    D(    4) --> V(   63) amplitude =  1.0000

 Excited state  66: excitation energy (eV) =     536.7201
 Total energy for state  66:                  -439.11921912 au
    Multiplicity: Singlet
    Trans. Mom.:  0.0010 X  -0.0043 Y  -0.0029 Z
    Strength   :     0.0003688331
    D(    4) --> V(   65) amplitude =  0.4258
    D(    4) --> V(   66) amplitude =  0.8613

 Excited state  67: excitation energy (eV) =     537.2487
 Total energy for state  67:                  -439.09979450 au
    Multiplicity: Singlet
    Trans. Mom.:  0.0008 X   0.0007 Y   0.0042 Z
    Strength   :     0.0002440055
    D(    4) --> V(   68) amplitude =  0.9406
    D(    4) --> V(   71) amplitude = -0.2376

 Excited state  68: excitation energy (eV) =     537.6545
 Total energy for state  68:                  -439.08488196 au
    Multiplicity: Singlet
    Trans. Mom.:  0.0076 X   0.0077 Y   0.0002 Z
    Strength   :     0.0015297177
    D(    4) --> V(   69) amplitude =  0.9707

 Excited state  69: excitation energy (eV) =     537.9600
 Total energy for state  69:                  -439.07365666 au
    Multiplicity: Singlet
    Trans. Mom.: -0.0000 X  -0.0000 Y   0.0000 Z
    Strength   :     0.0000000000
    D(    4) --> V(   67) amplitude =  1.0000

 Excited state  70: excitation energy (eV) =     537.9898
 Total energy for state  70:                  -439.07256198 au
    Multiplicity: Singlet
    Trans. Mom.:  0.0014 X   0.0066 Y   0.0004 Z
    Strength   :     0.0006097818
    D(    4) --> V(   68) amplitude =  0.2333
    D(    4) --> V(   71) amplitude =  0.9225

 Excited state  71: excitation energy (eV) =     538.3642
 Total energy for state  71:                  -439.05880309 au
    Multiplicity: Singlet
    Trans. Mom.: -0.0077 X   0.0087 Y  -0.0009 Z
    Strength   :     0.0017905877
    D(    4) --> V(   72) amplitude =  0.9468

 Excited state  72: excitation energy (eV) =     538.5859
 Total energy for state  72:                  -439.05065279 au
    Multiplicity: Singlet
    Trans. Mom.: -0.0000 X   0.0000 Y   0.0000 Z
    Strength   :     0.0000000000
    D(    4) --> V(   70) amplitude =  1.0000

 Excited state  73: excitation energy (eV) =     538.8280
 Total energy for state  73:                  -439.04175886 au
    Multiplicity: Singlet
    Trans. Mom.: -0.0099 X   0.0029 Y   0.0006 Z
    Strength   :     0.0014229825
    D(    4) --> V(   74) amplitude =  0.7775
    D(    4) --> V(   75) amplitude =  0.5835

 Excited state  74: excitation energy (eV) =     539.1016
 Total energy for state  74:                  -439.03170424 au
    Multiplicity: Singlet
    Trans. Mom.: -0.0003 X  -0.0042 Y  -0.0054 Z
    Strength   :     0.0006119662
    D(    4) --> V(   74) amplitude = -0.6036
    D(    4) --> V(   75) amplitude =  0.7612

 Excited state  75: excitation energy (eV) =     539.5496
 Total energy for state  75:                  -439.01523942 au
    Multiplicity: Singlet
    Trans. Mom.:  0.0065 X  -0.0070 Y  -0.0016 Z
    Strength   :     0.0012337050
    D(    4) --> V(   77) amplitude = -0.5156
    D(    4) --> V(   78) amplitude =  0.7842
    D(    4) --> V(   80) amplitude = -0.2287

 Excited state  76: excitation energy (eV) =     539.6389
 Total energy for state  76:                  -439.01195559 au
    Multiplicity: Singlet
    Trans. Mom.: -0.0000 X  -0.0000 Y  -0.0000 Z
    Strength   :     0.0000000000
    D(    4) --> V(   73) amplitude =  1.0000

 Excited state  77: excitation energy (eV) =     539.7069
 Total energy for state  77:                  -439.00945818 au
    Multiplicity: Singlet
    Trans. Mom.: -0.0057 X  -0.0022 Y  -0.0056 Z
    Strength   :     0.0009153575
    D(    4) --> V(   77) amplitude =  0.8200
    D(    4) --> V(   78) amplitude =  0.5458

 Excited state  78: excitation energy (eV) =     540.2313
 Total energy for state  78:                  -438.99018623 au
    Multiplicity: Singlet
    Trans. Mom.: -0.0000 X  -0.0000 Y   0.0000 Z
    Strength   :     0.0000000000
    D(    4) --> V(   76) amplitude =  1.0000

 Excited state  79: excitation energy (eV) =     540.3669
 Total energy for state  79:                  -438.98520499 au
    Multiplicity: Singlet
    Trans. Mom.: -0.0107 X  -0.0053 Y   0.0012 Z
    Strength   :     0.0019028169
    D(    4) --> V(   80) amplitude =  0.9542

 Excited state  80: excitation energy (eV) =     540.9464
 Total energy for state  80:                  -438.96390817 au
    Multiplicity: Singlet
    Trans. Mom.:  0.0027 X  -0.0114 Y  -0.0079 Z
    Strength   :     0.0026299718
    D(    4) --> V(   81) amplitude =  0.7667
    D(    4) --> V(   84) amplitude = -0.5693

 Excited state  81: excitation energy (eV) =     541.0245
 Total energy for state  81:                  -438.96103794 au
    Multiplicity: Singlet
    Trans. Mom.: -0.0081 X  -0.0126 Y  -0.0148 Z
    Strength   :     0.0058769907
    D(    4) --> V(   81) amplitude = -0.4486
    D(    4) --> V(   83) amplitude =  0.6332
    D(    4) --> V(   84) amplitude = -0.4957
    D(    4) --> V(   90) amplitude = -0.2760

 Excited state  82: excitation energy (eV) =     541.0794
 Total energy for state  82:                  -438.95902039 au
    Multiplicity: Singlet
    Trans. Mom.:  0.0000 X   0.0000 Y   0.0000 Z
    Strength   :     0.0000000000
    D(    4) --> V(   79) amplitude =  1.0000

 Excited state  83: excitation energy (eV) =     541.2492
 Total energy for state  83:                  -438.95278074 au
    Multiplicity: Singlet
    Trans. Mom.: -0.0022 X   0.0030 Y  -0.0016 Z
    Strength   :     0.0002223242
    D(    4) --> V(   81) amplitude =  0.4422
    D(    4) --> V(   83) amplitude =  0.7213
    D(    4) --> V(   84) amplitude =  0.5108

 Excited state  84: excitation energy (eV) =     541.8412
 Total energy for state  84:                  -438.93102388 au
    Multiplicity: Singlet
    Trans. Mom.: -0.0000 X   0.0000 Y   0.0000 Z
    Strength   :     0.0000000000
    D(    4) --> V(   82) amplitude =  1.0000

 Excited state  85: excitation energy (eV) =     541.8889
 Total energy for state  85:                  -438.92927013 au
    Multiplicity: Singlet
    Trans. Mom.:  0.0057 X  -0.0143 Y  -0.0062 Z
    Strength   :     0.0036718296
    D(    4) --> V(   83) amplitude = -0.2175
    D(    4) --> V(   87) amplitude =  0.6408
    D(    4) --> V(   88) amplitude =  0.3134
    D(    4) --> V(   90) amplitude = -0.5832

 Excited state  86: excitation energy (eV) =     542.0740
 Total energy for state  86:                  -438.92247042 au
    Multiplicity: Singlet
    Trans. Mom.:  0.0008 X   0.0015 Y   0.0042 Z
    Strength   :     0.0002696514
    D(    4) --> V(   84) amplitude = -0.3228
    D(    4) --> V(   88) amplitude =  0.8993
    D(    4) --> V(   90) amplitude =  0.2231

 Excited state  87: excitation energy (eV) =     542.3236
 Total energy for state  87:                  -438.91329633 au
    Multiplicity: Singlet
    Trans. Mom.: -0.0035 X   0.0058 Y   0.0036 Z
    Strength   :     0.0007898702
    D(    4) --> V(   87) amplitude =  0.7251
    D(    4) --> V(   90) amplitude =  0.6504

 Excited state  88: excitation energy (eV) =     542.4151
 Total energy for state  88:                  -438.90993314 au
    Multiplicity: Singlet
    Trans. Mom.:  0.0000 X   0.0000 Y   0.0000 Z
    Strength   :     0.0000000000
    D(    4) --> V(   85) amplitude =  1.0000

 Excited state  89: excitation energy (eV) =     542.8166
 Total energy for state  89:                  -438.89517911 au
    Multiplicity: Singlet
    Trans. Mom.:  0.0000 X   0.0000 Y   0.0000 Z
    Strength   :     0.0000000000
    D(    4) --> V(   86) amplitude =  0.9999

 Excited state  90: excitation energy (eV) =     542.9653
 Total energy for state  90:                  -438.88971399 au
    Multiplicity: Singlet
    Trans. Mom.: -0.0089 X   0.0010 Y  -0.0060 Z
    Strength   :     0.0015433662
    D(    4) --> V(   91) amplitude =  0.9326
    D(    4) --> V(   92) amplitude = -0.2297

 Excited state  91: excitation energy (eV) =     543.1831
 Total energy for state  91:                  -438.88170987 au
    Multiplicity: Singlet
    Trans. Mom.: -0.0000 X  -0.0000 Y   0.0000 Z
    Strength   :     0.0000000000
    D(    4) --> V(   89) amplitude =  0.9999

 Excited state  92: excitation energy (eV) =     543.3858
 Total energy for state  92:                  -438.87426108 au
    Multiplicity: Singlet
    Trans. Mom.: -0.0004 X  -0.0001 Y  -0.0113 Z
    Strength   :     0.0016893843
    D(    4) --> V(   91) amplitude =  0.2643
    D(    4) --> V(   92) amplitude =  0.9232

 Excited state  93: excitation energy (eV) =     544.0568
 Total energy for state  93:                  -438.84960262 au
    Multiplicity: Singlet
    Trans. Mom.:  0.0012 X  -0.0062 Y   0.0022 Z
    Strength   :     0.0006010975
    D(    4) --> V(   93) amplitude =  0.9836

 Excited state  94: excitation energy (eV) =     544.9152
 Total energy for state  94:                  -438.81805682 au
    Multiplicity: Singlet
    Trans. Mom.:  0.0037 X   0.0040 Y   0.0007 Z
    Strength   :     0.0004016255
    D(    4) --> V(   94) amplitude =  0.9596

 Excited state  95: excitation energy (eV) =     545.2904
 Total energy for state  95:                  -438.80426902 au
    Multiplicity: Singlet
    Trans. Mom.:  0.0001 X   0.0005 Y  -0.0036 Z
    Strength   :     0.0001766283
    D(    4) --> V(   96) amplitude =  0.8978
    D(    4) --> V(   98) amplitude = -0.2264
    D(    4) --> V(  101) amplitude =  0.2263

 Excited state  96: excitation energy (eV) =     545.9734
 Total energy for state  96:                  -438.77916742 au
    Multiplicity: Singlet
    Trans. Mom.:  0.0019 X  -0.0016 Y   0.0022 Z
    Strength   :     0.0001482071
    D(    4) --> V(   96) amplitude =  0.2471
    D(    4) --> V(   98) amplitude =  0.9498

 Excited state  97: excitation energy (eV) =     546.2354
 Total energy for state  97:                  -438.76954059 au
    Multiplicity: Singlet
    Trans. Mom.:  0.0009 X   0.0050 Y  -0.0031 Z
    Strength   :     0.0004787031
    D(    4) --> V(  100) amplitude =  0.9625

 Excited state  98: excitation energy (eV) =     546.3606
 Total energy for state  98:                  -438.76493927 au
    Multiplicity: Singlet
    Trans. Mom.:  0.0000 X   0.0000 Y   0.0000 Z
    Strength   :     0.0000000000
    D(    4) --> V(   95) amplitude =  1.0000

 Excited state  99: excitation energy (eV) =     546.5014
 Total energy for state  99:                  -438.75976334 au
    Multiplicity: Singlet
    Trans. Mom.:  0.0054 X   0.0040 Y  -0.0039 Z
    Strength   :     0.0008052891
    D(    4) --> V(   96) amplitude = -0.2684
    D(    4) --> V(  101) amplitude =  0.9099

 Excited state 100: excitation energy (eV) =     546.7956
 Total energy for state 100:                  -438.74895321 au
    Multiplicity: Singlet
    Trans. Mom.:  0.0000 X   0.0000 Y   0.0000 Z
    Strength   :     0.0000000000
    D(    4) --> V(   97) amplitude =  1.0000

 Excited state 101: excitation energy (eV) =     547.2855
 Total energy for state 101:                  -438.73095009 au
    Multiplicity: Singlet
    Trans. Mom.: -0.0000 X  -0.0000 Y  -0.0000 Z
    Strength   :     0.0000000000
    D(    4) --> V(   99) amplitude =  1.0000

 Excited state 102: excitation energy (eV) =     547.3495
 Total energy for state 102:                  -438.72859738 au
    Multiplicity: Singlet
    Trans. Mom.:  0.0051 X   0.0003 Y   0.0086 Z
    Strength   :     0.0013451872
    D(    4) --> V(  101) amplitude = -0.3291
    D(    4) --> V(  103) amplitude = -0.5889
    D(    4) --> V(  104) amplitude =  0.6281
    D(    4) --> V(  107) amplitude = -0.2901

 Excited state 103: excitation energy (eV) =     547.5497
 Total energy for state 103:                  -438.72123931 au
    Multiplicity: Singlet
    Trans. Mom.:  0.0090 X   0.0073 Y   0.0174 Z
    Strength   :     0.0058766039
    D(    4) --> V(  103) amplitude =  0.7471
    D(    4) --> V(  104) amplitude =  0.5231
    D(    4) --> V(  107) amplitude = -0.2282
    D(    4) --> V(  112) amplitude =  0.2178

 Excited state 104: excitation energy (eV) =     547.6317
 Total energy for state 104:                  -438.71822711 au
    Multiplicity: Singlet
    Trans. Mom.:  0.0000 X   0.0000 Y   0.0000 Z
    Strength   :     0.0000000000
    D(    4) --> V(  102) amplitude =  1.0000

 Excited state 105: excitation energy (eV) =     548.0171
 Total energy for state 105:                  -438.70406207 au
    Multiplicity: Singlet
    Trans. Mom.: -0.0070 X   0.0014 Y  -0.0172 Z
    Strength   :     0.0046526712
    D(    4) --> V(  104) amplitude =  0.4857
    D(    4) --> V(  107) amplitude =  0.6821
    D(    4) --> V(  108) amplitude = -0.3120
    D(    4) --> V(  111) amplitude =  0.2339
    D(    4) --> V(  112) amplitude = -0.3114

 Excited state 106: excitation energy (eV) =     548.4170
 Total energy for state 106:                  -438.68936913 au
    Multiplicity: Singlet
    Trans. Mom.:  0.0063 X   0.0017 Y   0.0108 Z
    Strength   :     0.0021231755
    D(    4) --> V(  107) amplitude =  0.5585
    D(    4) --> V(  108) amplitude =  0.6578
    D(    4) --> V(  111) amplitude = -0.2991
    D(    4) --> V(  112) amplitude =  0.3029

 Excited state 107: excitation energy (eV) =     548.6788
 Total energy for state 107:                  -438.67974764 au
    Multiplicity: Singlet
    Trans. Mom.: -0.0000 X  -0.0000 Y   0.0000 Z
    Strength   :     0.0000000000
    D(    4) --> V(  105) amplitude =  1.0000

 Excited state 108: excitation energy (eV) =     548.8098
 Total energy for state 108:                  -438.67493086 au
    Multiplicity: Singlet
    Trans. Mom.:  0.0036 X   0.0059 Y   0.0085 Z
    Strength   :     0.0016230903
    D(    4) --> V(  107) amplitude =  0.2196
    D(    4) --> V(  108) amplitude = -0.5277
    D(    4) --> V(  110) amplitude =  0.5858
    D(    4) --> V(  111) amplitude = -0.4706

 Excited state 109: excitation energy (eV) =     548.8844
 Total energy for state 109:                  -438.67219012 au
    Multiplicity: Singlet
    Trans. Mom.: -0.0000 X   0.0000 Y   0.0000 Z
    Strength   :     0.0000000000
    D(    4) --> V(  106) amplitude =  1.0000

 Excited state 110: excitation energy (eV) =     549.0971
 Total energy for state 110:                  -438.66437437 au
    Multiplicity: Singlet
    Trans. Mom.: -0.0015 X  -0.0061 Y  -0.0101 Z
    Strength   :     0.0019101955
    D(    4) --> V(  108) amplitude =  0.3999
    D(    4) --> V(  110) amplitude =  0.6794
    D(    4) --> V(  112) amplitude = -0.5258

 Excited state 111: excitation energy (eV) =     549.2828
 Total energy for state 111:                  -438.65755173 au
    Multiplicity: Singlet
    Trans. Mom.: -0.0040 X  -0.0019 Y   0.0105 Z
    Strength   :     0.0017457308
    D(    4) --> V(  110) amplitude =  0.3576
    D(    4) --> V(  111) amplitude =  0.6530
    D(    4) --> V(  112) amplitude =  0.5886

 Excited state 112: excitation energy (eV) =     549.7300
 Total energy for state 112:                  -438.64111532 au
    Multiplicity: Singlet
    Trans. Mom.:  0.0000 X  -0.0000 Y   0.0000 Z
    Strength   :     0.0000000000
    D(    4) --> V(  109) amplitude =  1.0000

 Excited state 113: excitation energy (eV) =     549.8144
 Total energy for state 113:                  -438.63801534 au
    Multiplicity: Singlet
    Trans. Mom.: -0.0120 X   0.0054 Y  -0.0052 Z
    Strength   :     0.0027052408
    D(    4) --> V(  113) amplitude =  0.8513
    D(    4) --> V(  115) amplitude =  0.2396
    D(    4) --> V(  117) amplitude =  0.3278

 Excited state 114: excitation energy (eV) =     550.0273
 Total energy for state 114:                  -438.63019096 au
    Multiplicity: Singlet
    Trans. Mom.:  0.0010 X   0.0096 Y  -0.0048 Z
    Strength   :     0.0015702628
    D(    4) --> V(  111) amplitude =  0.3154
    D(    4) --> V(  113) amplitude = -0.3370
    D(    4) --> V(  115) amplitude =  0.7720
    D(    4) --> V(  117) amplitude =  0.3613

 Excited state 115: excitation energy (eV) =     550.5414
 Total energy for state 115:                  -438.61129736 au
    Multiplicity: Singlet
    Trans. Mom.: -0.0202 X   0.0137 Y   0.0019 Z
    Strength   :     0.0081235816
    D(    4) --> V(  113) amplitude = -0.2496
    D(    4) --> V(  115) amplitude = -0.4310
    D(    4) --> V(  116) amplitude =  0.3559
    D(    4) --> V(  117) amplitude =  0.7022
    D(    4) --> V(  122) amplitude =  0.2668

 Excited state 116: excitation energy (eV) =     550.8088
 Total energy for state 116:                  -438.60147192 au
    Multiplicity: Singlet
    Trans. Mom.: -0.0077 X  -0.0133 Y   0.0100 Z
    Strength   :     0.0045339807
    D(    4) --> V(  115) amplitude =  0.2848
    D(    4) --> V(  116) amplitude =  0.8502
    D(    4) --> V(  117) amplitude = -0.2614
    D(    4) --> V(  120) amplitude =  0.2709

 Excited state 117: excitation energy (eV) =     551.1355
 Total energy for state 117:                  -438.58946474 au
    Multiplicity: Singlet
    Trans. Mom.: -0.0000 X   0.0000 Y  -0.0000 Z
    Strength   :     0.0000000000
    D(    4) --> V(  114) amplitude =  1.0000

 Excited state 118: excitation energy (eV) =     551.4747
 Total energy for state 118:                  -438.57699924 au
    Multiplicity: Singlet
    Trans. Mom.: -0.0108 X   0.0242 Y   0.0020 Z
    Strength   :     0.0095487482
    D(    4) --> V(  117) amplitude = -0.3352
    D(    4) --> V(  120) amplitude = -0.4528
    D(    4) --> V(  121) amplitude = -0.4694
    D(    4) --> V(  122) amplitude =  0.4969
    D(    4) --> V(  123) amplitude = -0.3707

 Excited state 119: excitation energy (eV) =     551.6172
 Total energy for state 119:                  -438.57176084 au
    Multiplicity: Singlet
    Trans. Mom.: -0.0043 X   0.0102 Y   0.0049 Z
    Strength   :     0.0019758122
    D(    4) --> V(  116) amplitude = -0.2803
    D(    4) --> V(  120) amplitude =  0.7979
    D(    4) --> V(  122) amplitude =  0.4046
    D(    4) --> V(  123) amplitude = -0.2366

 Excited state 120: excitation energy (eV) =     552.1535
 Total energy for state 120:                  -438.55205247 au
    Multiplicity: Singlet
    Trans. Mom.: -0.0000 X   0.0000 Y  -0.0000 Z
    Strength   :     0.0000000000
    D(    4) --> V(  118) amplitude =  1.0000

 Excited state 121: excitation energy (eV) =     552.4374
 Total energy for state 121:                  -438.54162209 au
    Multiplicity: Singlet
    Trans. Mom.:  0.0000 X  -0.0000 Y  -0.0000 Z
    Strength   :     0.0000000000
    D(    4) --> V(  119) amplitude =  1.0000

 Excited state 122: excitation energy (eV) =     552.5270
 Total energy for state 122:                  -438.53832956 au
    Multiplicity: Singlet
    Trans. Mom.: -0.0040 X  -0.0026 Y   0.0085 Z
    Strength   :     0.0012869883
    D(    4) --> V(  121) amplitude =  0.7036
    D(    4) --> V(  122) amplitude =  0.6412
    D(    4) --> V(  123) amplitude =  0.2149

 Excited state 123: excitation energy (eV) =     552.6670
 Total energy for state 123:                  -438.53318291 au
    Multiplicity: Singlet
    Trans. Mom.:  0.0000 X  -0.0029 Y   0.0023 Z
    Strength   :     0.0001851930
    D(    4) --> V(  121) amplitude = -0.4600
    D(    4) --> V(  122) amplitude =  0.2236
    D(    4) --> V(  123) amplitude =  0.8506

 Excited state 124: excitation energy (eV) =     553.2340
 Total energy for state 124:                  -438.51234622 au
    Multiplicity: Singlet
    Trans. Mom.:  0.0086 X  -0.0085 Y   0.0001 Z
    Strength   :     0.0019741910
    D(    4) --> V(  125) amplitude =  0.9679

 Excited state 125: excitation energy (eV) =     553.9757
 Total energy for state 125:                  -438.48508996 au
    Multiplicity: Singlet
    Trans. Mom.: -0.0280 X  -0.0235 Y   0.0313 Z
    Strength   :     0.0314089922
    D(    4) --> V(  127) amplitude = -0.3352
    D(    4) --> V(  128) amplitude =  0.7269
    D(    4) --> V(  129) amplitude =  0.5161

 Excited state 126: excitation energy (eV) =     554.3617
 Total energy for state 126:                  -438.47090460 au
    Multiplicity: Singlet
    Trans. Mom.:  0.0000 X  -0.0000 Y   0.0000 Z
    Strength   :     0.0000000000
    D(    4) --> V(  124) amplitude =  1.0000

 Excited state 127: excitation energy (eV) =     554.4614
 Total energy for state 127:                  -438.46724024 au
    Multiplicity: Singlet
    Trans. Mom.: -0.0106 X  -0.0038 Y  -0.0009 Z
    Strength   :     0.0017429567
    D(    4) --> V(  127) amplitude =  0.9194
    D(    4) --> V(  129) amplitude =  0.3177

 Excited state 128: excitation energy (eV) =     554.8521
 Total energy for state 128:                  -438.45288140 au
    Multiplicity: Singlet
    Trans. Mom.: -0.0000 X   0.0000 Y  -0.0000 Z
    Strength   :     0.0000000000
    D(    4) --> V(  126) amplitude =  1.0000

 Excited state 129: excitation energy (eV) =     554.8743
 Total energy for state 129:                  -438.45206674 au
    Multiplicity: Singlet
    Trans. Mom.: -0.0212 X   0.0032 Y  -0.0053 Z
    Strength   :     0.0066556713
    D(    4) --> V(  128) amplitude = -0.6243
    D(    4) --> V(  129) amplitude =  0.7563

 Excited state 130: excitation energy (eV) =     556.0127
 Total energy for state 130:                  -438.41023060 au
    Multiplicity: Singlet
    Trans. Mom.: -0.0056 X  -0.0084 Y   0.0093 Z
    Strength   :     0.0025554539
    D(    4) --> V(  131) amplitude =  0.9012
    D(    4) --> V(  132) amplitude = -0.3355

 Excited state 131: excitation energy (eV) =     556.3102
 Total energy for state 131:                  -438.39929728 au
    Multiplicity: Singlet
    Trans. Mom.:  0.0033 X  -0.0032 Y  -0.0055 Z
    Strength   :     0.0006980392
    D(    4) --> V(  131) amplitude =  0.3632
    D(    4) --> V(  132) amplitude =  0.8651
    D(    4) --> V(  134) amplitude = -0.2772

 Excited state 132: excitation energy (eV) =     556.4311
 Total energy for state 132:                  -438.39485338 au
    Multiplicity: Singlet
    Trans. Mom.: -0.0000 X   0.0000 Y   0.0000 Z
    Strength   :     0.0000000000
    D(    4) --> V(  130) amplitude =  1.0000

 Excited state 133: excitation energy (eV) =     556.9484
 Total energy for state 133:                  -438.37584564 au
    Multiplicity: Singlet
    Trans. Mom.:  0.0014 X   0.0012 Y   0.0007 Z
    Strength   :     0.0000507628
    D(    4) --> V(  133) amplitude =  0.9482
    D(    4) --> V(  134) amplitude = -0.2128

 Excited state 134: excitation energy (eV) =     557.1180
 Total energy for state 134:                  -438.36961253 au
    Multiplicity: Singlet
    Trans. Mom.:  0.0028 X   0.0024 Y   0.0012 Z
    Strength   :     0.0002090361
    D(    4) --> V(  132) amplitude =  0.2870
    D(    4) --> V(  133) amplitude =  0.2729
    D(    4) --> V(  134) amplitude =  0.8933

 Excited state 135: excitation energy (eV) =     558.0092
 Total energy for state 135:                  -438.33685920 au
    Multiplicity: Singlet
    Trans. Mom.:  0.0060 X   0.0052 Y  -0.0052 Z
    Strength   :     0.0012308607
    D(    4) --> V(  136) amplitude =  0.8745
    D(    4) --> V(  138) amplitude =  0.3867

 Excited state 136: excitation energy (eV) =     558.1653
 Total energy for state 136:                  -438.33112470 au
    Multiplicity: Singlet
    Trans. Mom.: -0.0006 X   0.0052 Y  -0.0127 Z
    Strength   :     0.0025741522
    D(    4) --> V(  136) amplitude = -0.3900
    D(    4) --> V(  138) amplitude =  0.8821

 Excited state 137: excitation energy (eV) =     558.7711
 Total energy for state 137:                  -438.30886127 au
    Multiplicity: Singlet
    Trans. Mom.: -0.0000 X  -0.0000 Y   0.0000 Z
    Strength   :     0.0000000000
    D(    4) --> V(  135) amplitude =  1.0000

 Excited state 138: excitation energy (eV) =     558.9308
 Total energy for state 138:                  -438.30299290 au
    Multiplicity: Singlet
    Trans. Mom.: -0.0043 X  -0.0039 Y   0.0062 Z
    Strength   :     0.0010019248
    D(    4) --> V(  136) amplitude = -0.2255
    D(    4) --> V(  140) amplitude =  0.7645
    D(    4) --> V(  141) amplitude = -0.5773

 Excited state 139: excitation energy (eV) =     559.1417
 Total energy for state 139:                  -438.29524361 au
    Multiplicity: Singlet
    Trans. Mom.: -0.0093 X   0.0046 Y   0.0020 Z
    Strength   :     0.0015326135
    D(    4) --> V(  140) amplitude =  0.5959
    D(    4) --> V(  141) amplitude =  0.7639

 Excited state 140: excitation energy (eV) =     559.3267
 Total energy for state 140:                  -438.28844548 au
    Multiplicity: Singlet
    Trans. Mom.: -0.0000 X   0.0000 Y  -0.0000 Z
    Strength   :     0.0000000000
    D(    4) --> V(  137) amplitude =  1.0000

 Excited state 141: excitation energy (eV) =     559.8613
 Total energy for state 141:                  -438.26879700 au
    Multiplicity: Singlet
    Trans. Mom.: -0.0060 X  -0.0093 Y   0.0013 Z
    Strength   :     0.0017071942
    D(    4) --> V(  145) amplitude =  0.9283
    D(    4) --> V(  147) amplitude = -0.3116

 Excited state 142: excitation energy (eV) =     559.9345
 Total energy for state 142:                  -438.26610750 au
    Multiplicity: Singlet
    Trans. Mom.: -0.0000 X   0.0000 Y   0.0000 Z
    Strength   :     0.0000000000
    D(    4) --> V(  139) amplitude =  1.0000

 Excited state 143: excitation energy (eV) =     560.3557
 Total energy for state 143:                  -438.25062854 au
    Multiplicity: Singlet
    Trans. Mom.: -0.0024 X   0.0087 Y   0.0155 Z
    Strength   :     0.0044126753
    D(    4) --> V(  146) amplitude =  0.8402
    D(    4) --> V(  147) amplitude =  0.4207
    D(    4) --> V(  151) amplitude =  0.2424

 Excited state 144: excitation energy (eV) =     560.5411
 Total energy for state 144:                  -438.24381543 au
    Multiplicity: Singlet
    Trans. Mom.: -0.0035 X   0.0131 Y   0.0042 Z
    Strength   :     0.0027499731
    D(    4) --> V(  145) amplitude =  0.3003
    D(    4) --> V(  146) amplitude = -0.5114
    D(    4) --> V(  147) amplitude =  0.7372

 Excited state 145: excitation energy (eV) =     560.5841
 Total energy for state 145:                  -438.24223553 au
    Multiplicity: Singlet
    Trans. Mom.: -0.0000 X   0.0000 Y   0.0000 Z
    Strength   :     0.0000000000
    D(    4) --> V(  142) amplitude =  1.0000

 Excited state 146: excitation energy (eV) =     560.8798
 Total energy for state 146:                  -438.23136744 au
    Multiplicity: Singlet
    Trans. Mom.: -0.0000 X   0.0000 Y  -0.0000 Z
    Strength   :     0.0000000000
    D(    4) --> V(  143) amplitude =  1.0000

 Excited state 147: excitation energy (eV) =     560.9251
 Total energy for state 147:                  -438.22970497 au
    Multiplicity: Singlet
    Trans. Mom.: -0.0000 X   0.0000 Y   0.0000 Z
    Strength   :     0.0000000000
    D(    4) --> V(  144) amplitude =  1.0000

 Excited state 148: excitation energy (eV) =     561.1144
 Total energy for state 148:                  -438.22274782 au
    Multiplicity: Singlet
    Trans. Mom.: -0.0063 X   0.0091 Y   0.0112 Z
    Strength   :     0.0034072601
    D(    4) --> V(  147) amplitude = -0.3405
    D(    4) --> V(  150) amplitude = -0.3335
    D(    4) --> V(  151) amplitude =  0.7558
    D(    4) --> V(  152) amplitude =  0.3490

 Excited state 149: excitation energy (eV) =     561.4106
 Total energy for state 149:                  -438.21186103 au
    Multiplicity: Singlet
    Trans. Mom.:  0.0067 X   0.0115 Y   0.0059 Z
    Strength   :     0.0029307920
    D(    4) --> V(  147) amplitude = -0.2213
    D(    4) --> V(  150) amplitude =  0.8782
    D(    4) --> V(  152) amplitude =  0.3005

 Excited state 150: excitation energy (eV) =     561.6053
 Total energy for state 150:                  -438.20470796 au
    Multiplicity: Singlet
    Trans. Mom.:  0.0000 X   0.0000 Y   0.0000 Z
    Strength   :     0.0000000000
    D(    4) --> V(  148) amplitude =  1.0000

 ---------------------------------------------------
  SETman timing summary (seconds)
  CPU time            194642.17s
  System time              0.00s
  Wall time            97470.57s
================================================================================
                             Excited State Analysis
================================================================================

  Ground State (Reference) :
  -------------------------
    NOs
      Occupation of frontier NOs:
         0.0000   0.0000   2.0000   2.0000
      Number of electrons: 60.000000
      Number of unpaired electrons: n_u =  0.00000, n_u,nl =  0.00000
    
    Mulliken Population Analysis (State DM)
    Atom      Charge (e)
    --------------------
     1 O       -0.613435
     2 H        0.284059
     3 H        0.322016
     4 O       -0.557505
     5 H        0.272836
     6 H        0.283668
     7 O       -0.615993
     8 H        0.316744
     9 H        0.300250
    10 O       -0.657708
    11 H        0.327407
    12 H        0.306313
    13 O       -0.644360
    14 H        0.367792
    15 H        0.273634
    16 O       -0.725299
    17 H        0.392326
    18 H        0.367254
    --------------------
    Sum:        0.000000
    
    Multipole moment analysis of the density matrix
      Molecular charge:                      -0.000000
      Number of electrons:                   60.000000
        Center of electronic charge [Ang]: [  0.000585,  -0.003937,  -0.004064]
      Total nuclear charge:                  60.000000
        Center of nuclear charge [Ang]:    [ -0.007335,  -0.016790,  -0.016173]
      Dipole moment [D]:                     5.577462
        Cartesian components [D]:          [ -2.282520,  -3.704063,  -3.489714]
      RMS size of the density [Ang]:        10.751359
        Cartesian components [Ang]:        [ 10.551524,   1.736707,   1.113955]
    

  ----------------------------------------------------------------------------
                  Analysis of Unrelaxed Density Matrices
  ----------------------------------------------------------------------------

  Singlet 1 :
  -------------------------
    NOs
      Occupation of frontier NOs:
         0.0000   1.0000   1.0000   2.0000
      Number of electrons: 60.000000
      Number of unpaired electrons: n_u =  2.00000, n_u,nl =  2.00000
      NO participation ratio (PR_NO):  2.000000
    
    NDOs
      Leading detachment eigenvalues:
        -1.0000  -0.0000
      Leading attachment eigenvalues:
         1.0000   0.0000
      Number of detached / attached electrons: p_D =  1.0000, p_A =  1.0000
      Number of involved orbitals: PR_D =  1.000000, PR_A =  1.000000
    
    Mulliken Population Analysis (State/Difference DM)
    Atom      Charge (e)              h+              e-           Del q
    --------------------------------------------------------------------
     1 O        0.437759        0.994428        0.056766        1.051194
     2 H        0.114513        0.002779       -0.172326       -0.169547
     3 H        0.226585        0.002791       -0.098222       -0.095431
     4 O       -0.557505        0.000000       -0.000000       -0.000000
     5 H        0.272836        0.000000       -0.000000       -0.000000
     6 H        0.283668        0.000000       -0.000000       -0.000000
     7 O       -0.615993        0.000000       -0.000000       -0.000000
     8 H        0.316744        0.000000       -0.000000       -0.000000
     9 H        0.300250        0.000000       -0.000000        0.000000
    10 O       -0.671573       -0.000000       -0.013864       -0.013864
    11 H        0.365015       -0.000000        0.037608        0.037608
    12 H        0.245845       -0.000000       -0.060468       -0.060468
    13 O       -0.600808       -0.000000        0.043551        0.043551
    14 H        0.375813        0.000001        0.008020        0.008021
    15 H        0.092035       -0.000000       -0.181599       -0.181599
    16 O       -0.776780        0.000001       -0.051482       -0.051481
    17 H        0.187510       -0.000000       -0.204817       -0.204817
    18 H        0.004087       -0.000000       -0.363168       -0.363168
    --------------------------------------------------------------------
    Sum:       -0.000000        1.000000       -1.000000       -0.000000
    
    Multipole moment analysis of the density matrix
      Molecular charge:                      -0.000000
      Number of electrons:                   60.000000
        Center of electronic charge [Ang]: [ -0.038590,   0.001709,  -0.032680]
      Total nuclear charge:                  60.000000
        Center of nuclear charge [Ang]:    [ -0.007335,  -0.016790,  -0.016173]
      Dipole moment [D]:                     11.497306
        Cartesian components [D]:          [  9.007478,  -5.331276,   4.757193]
      RMS size of the density [Ang]:        10.727811
        Cartesian components [Ang]:        [ 10.524626,   1.748776,   1.122482]
    
    Exciton analysis of the difference density matrix
      <r_h> [Ang]:                  [  9.001812,  -0.108453,   1.026581]
      <r_e> [Ang]:                  [  6.651299,   0.230324,  -0.690378]
      |<r_e - r_h>| [Ang]:            2.930466
      Hole size [Ang]:                0.122766
        Cartesian components [Ang]: [  0.070881,   0.070881,   0.070876]
      Electron size [Ang]:            2.673758
        Cartesian components [Ang]: [  1.694835,   1.577005,   1.337748]

  Singlet 2 :
  -------------------------
    NOs
      Occupation of frontier NOs:
         0.0000   1.0000   1.0000   2.0000
      Number of electrons: 60.000000
      Number of unpaired electrons: n_u =  2.00000, n_u,nl =  2.00000
      NO participation ratio (PR_NO):  2.000000
    
    NDOs
      Leading detachment eigenvalues:
        -1.0000  -0.0000
      Leading attachment eigenvalues:
         1.0000   0.0000
      Number of detached / attached electrons: p_D =  1.0000, p_A =  1.0000
      Number of involved orbitals: PR_D =  1.000000, PR_A =  1.000000
    
    Mulliken Population Analysis (State/Difference DM)
    Atom      Charge (e)              h+              e-           Del q
    --------------------------------------------------------------------
     1 O        0.555532        0.994428        0.174539        1.168967
     2 H       -0.512408        0.002779       -0.799246       -0.796467
     3 H        0.348531        0.002791        0.023724        0.026515
     4 O       -0.557505        0.000000       -0.000000        0.000000
     5 H        0.272836        0.000000       -0.000000        0.000000
     6 H        0.283668        0.000000       -0.000000        0.000000
     7 O       -0.615993        0.000000       -0.000000       -0.000000
     8 H        0.316744        0.000000       -0.000000        0.000000
     9 H        0.300250        0.000000       -0.000000       -0.000000
    10 O       -0.659348       -0.000000       -0.001640       -0.001640
    11 H        0.337910       -0.000000        0.010504        0.010504
    12 H        0.283928       -0.000000       -0.022385       -0.022385
    13 O       -0.617222       -0.000000        0.027138        0.027138
    14 H        0.359583        0.000001       -0.008210       -0.008209
    15 H        0.231289       -0.000000       -0.042345       -0.042345
    16 O       -0.946842        0.000001       -0.221545       -0.221544
    17 H        0.312403       -0.000000       -0.079923       -0.079923
    18 H        0.306643       -0.000000       -0.060612       -0.060612
    --------------------------------------------------------------------
    Sum:        0.000000        1.000000       -1.000000        0.000000
    
    Multipole moment analysis of the density matrix
      Molecular charge:                      -0.000000
      Number of electrons:                   60.000000
        Center of electronic charge [Ang]: [ -0.018898,  -0.006778,  -0.025427]
      Total nuclear charge:                  60.000000
        Center of nuclear charge [Ang]:    [ -0.007335,  -0.016790,  -0.016173]
      Dipole moment [D]:                     5.151866
        Cartesian components [D]:          [  3.332479,  -2.885260,   2.666754]
      RMS size of the density [Ang]:        10.742210
        Cartesian components [Ang]:        [ 10.539678,   1.749230,   1.118236]
    
    Exciton analysis of the difference density matrix
      <r_h> [Ang]:                  [  9.001812,  -0.108453,   1.026581]
      <r_e> [Ang]:                  [  7.832801,  -0.278923,  -0.255160]
      |<r_e - r_h>| [Ang]:            1.743132
      Hole size [Ang]:                0.122766
        Cartesian components [Ang]: [  0.070881,   0.070881,   0.070876]
      Electron size [Ang]:            2.979890
        Cartesian components [Ang]: [  2.171377,   1.599981,   1.266857]

  Singlet 3 :
  -------------------------
    NOs
      Occupation of frontier NOs:
         0.0000   1.0000   1.0000   2.0000
      Number of electrons: 60.000000
      Number of unpaired electrons: n_u =  2.00000, n_u,nl =  2.00000
      NO participation ratio (PR_NO):  2.000000
    
    NDOs
      Leading detachment eigenvalues:
        -1.0000  -0.0000
      Leading attachment eigenvalues:
         1.0000   0.0000
      Number of detached / attached electrons: p_D =  1.0000, p_A =  1.0000
      Number of involved orbitals: PR_D =  1.000000, PR_A =  1.000000
    
    Mulliken Population Analysis (State/Difference DM)
    Atom      Charge (e)              h+              e-           Del q
    --------------------------------------------------------------------
     1 O        0.380993        0.994428       -0.000000        0.994428
     2 H        0.286838        0.002779       -0.000000        0.002779
     3 H        0.324807        0.002791       -0.000000        0.002791
     4 O       -0.440872        0.000000        0.116633        0.116633
     5 H        0.030629        0.000000       -0.242207       -0.242207
     6 H       -0.305878       -0.000000       -0.589546       -0.589546
     7 O       -0.585283        0.000000        0.030710        0.030710
     8 H        0.229725       -0.000000       -0.087018       -0.087018
     9 H        0.071679        0.000000       -0.228572       -0.228572
    10 O       -0.657708       -0.000000       -0.000000       -0.000000
    11 H        0.327407       -0.000000       -0.000000       -0.000000
    12 H        0.306313       -0.000000       -0.000000       -0.000000
    13 O       -0.644360       -0.000000       -0.000000       -0.000000
    14 H        0.367793        0.000001       -0.000000        0.000001
    15 H        0.273634       -0.000000       -0.000000       -0.000000
    16 O       -0.725297        0.000001       -0.000000        0.000001
    17 H        0.392326       -0.000000       -0.000000       -0.000000
    18 H        0.367254       -0.000000       -0.000000       -0.000000
    --------------------------------------------------------------------
    Sum:       -0.000000        1.000000       -1.000000       -0.000000
    
    Multipole moment analysis of the density matrix
      Molecular charge:                      0.000000
      Number of electrons:                   60.000000
        Center of electronic charge [Ang]: [ -0.392921,  -0.032005,  -0.018306]
      Total nuclear charge:                  60.000000
        Center of nuclear charge [Ang]:    [ -0.007335,  -0.016790,  -0.016173]
      Dipole moment [D]:                     111.211195
        Cartesian components [D]:          [111.123018,   4.384891,   0.614520]
      RMS size of the density [Ang]:        10.852886
        Cartesian components [Ang]:        [ 10.649740,   1.765285,   1.118902]
    
    Exciton analysis of the difference density matrix
      <r_h> [Ang]:                  [  9.001812,  -0.108453,   1.026581]
      <r_e> [Ang]:                  [-14.608579,  -1.792527,   0.172103]
      |<r_e - r_h>| [Ang]:           23.685794
      Hole size [Ang]:                0.122766
        Cartesian components [Ang]: [  0.070881,   0.070881,   0.070876]
      Electron size [Ang]:            2.531303
        Cartesian components [Ang]: [  1.351884,   1.693752,   1.308092]

  Singlet 4 :
  -------------------------
    NOs
      Occupation of frontier NOs:
         0.0000   1.0000   1.0000   2.0000
      Number of electrons: 60.000000
      Number of unpaired electrons: n_u =  2.00000, n_u,nl =  2.00000
      NO participation ratio (PR_NO):  2.000000
    
    NDOs
      Leading detachment eigenvalues:
        -1.0000  -0.0000
      Leading attachment eigenvalues:
         1.0000   0.0000
      Number of detached / attached electrons: p_D =  1.0000, p_A =  1.0000
      Number of involved orbitals: PR_D =  1.000000, PR_A =  1.000000
    
    Mulliken Population Analysis (State/Difference DM)
    Atom      Charge (e)              h+              e-           Del q
    --------------------------------------------------------------------
     1 O        0.403038        0.994428        0.022045        1.016473
     2 H        0.273973        0.002779       -0.012866       -0.010087
     3 H        0.235039        0.002791       -0.089768       -0.086977
     4 O       -0.557505        0.000000       -0.000000       -0.000000
     5 H        0.272836        0.000000       -0.000000        0.000000
     6 H        0.283668        0.000000       -0.000000        0.000000
     7 O       -0.615993        0.000000       -0.000000        0.000000
     8 H        0.316744        0.000000       -0.000000        0.000000
     9 H        0.300250        0.000000       -0.000000        0.000000
    10 O       -0.589379       -0.000000        0.068329        0.068329
    11 H        0.345131       -0.000000        0.017725        0.017725
    12 H       -0.004416       -0.000000       -0.310729       -0.310729
    13 O       -0.544721       -0.000000        0.099639        0.099639
    14 H        0.419916        0.000001        0.052123        0.052124
    15 H       -0.363611       -0.000000       -0.637245       -0.637245
    16 O       -0.656522        0.000001        0.068775        0.068777
    17 H        0.220748       -0.000000       -0.171578       -0.171578
    18 H        0.260803       -0.000000       -0.106451       -0.106451
    --------------------------------------------------------------------
    Sum:       -0.000000        1.000000       -1.000000       -0.000000
    
    Multipole moment analysis of the density matrix
      Molecular charge:                      -0.000000
      Number of electrons:                   60.000000
        Center of electronic charge [Ang]: [ -0.031211,  -0.008457,  -0.037422]
      Total nuclear charge:                  60.000000
        Center of nuclear charge [Ang]:    [ -0.007335,  -0.016790,  -0.016173]
      Dipole moment [D]:                     9.518938
        Cartesian components [D]:          [  6.880812,  -2.401382,   6.123559]
      RMS size of the density [Ang]:        10.735320
        Cartesian components [Ang]:        [ 10.529571,   1.763745,   1.124468]
    
    Exciton analysis of the difference density matrix
      <r_h> [Ang]:                  [  9.001812,  -0.108453,   1.026581]
      <r_e> [Ang]:                  [  7.094058,  -0.379664,  -0.974847]
      |<r_e - r_h>| [Ang]:            2.778273
      Hole size [Ang]:                0.122766
        Cartesian components [Ang]: [  0.070881,   0.070881,   0.070876]
      Electron size [Ang]:            3.187642
        Cartesian components [Ang]: [  1.732871,   2.356844,   1.266295]

[...]
 941  H 9   f 7     -0.00092   0.00000  -0.00026   0.00036  -0.00000
 942  H 9   g 1      0.00003  -0.00000  -0.00003   0.00000   0.00000
 943  H 9   g 2      0.00016   0.00000  -0.00020  -0.00005   0.00000
 944  H 9   g 3      0.00002  -0.00000  -0.00001  -0.00000   0.00000
 945  H 9   g 4      0.00027  -0.00000  -0.00043  -0.00016   0.00000
 946  H 9   g 5     -0.00006   0.00000  -0.00008   0.00010  -0.00000
 947  H 9   g 6     -0.00003   0.00000   0.00005   0.00002   0.00000
 948  H 9   g 7     -0.00008   0.00000  -0.00017   0.00013   0.00000
 949  H 9   g 8     -0.00006  -0.00000   0.00006  -0.00001  -0.00000
 950  H 9   g 9     -0.00015   0.00000  -0.00020   0.00016  -0.00000
 951  H 10  s        0.00223   0.00000  -0.00607  -0.00298  -0.00000
 952  H 10  s       -0.00043   0.00000  -0.00563  -0.00317  -0.00000
 953  H 10  s        0.13967  -0.00000  -0.26010  -0.08645   0.00000
 954  H 10  s        0.13755  -0.00000   0.02844   0.12403   0.00000
 955  H 10  s        0.39214   0.00000  -1.09428  -0.63029  -0.00000
 956  H 10  px      -0.00009   0.00000   0.00016  -0.00016  -0.00000
 957  H 10  py      -0.00034   0.00000   0.00059   0.00017  -0.00000
 958  H 10  pz      -0.00129   0.00000   0.00317   0.00149  -0.00000
 959  H 10  px       0.00057   0.00000  -0.00061   0.00001   0.00000
 960  H 10  py      -0.00082  -0.00000   0.00027   0.00079   0.00000
 961  H 10  pz       0.00093  -0.00000  -0.00624  -0.00198   0.00000
 962  H 10  px      -0.00413  -0.00000   0.00182   0.00730  -0.00000
 963  H 10  py       0.01802  -0.00000  -0.02010  -0.01473   0.00000
 964  H 10  pz       0.01783  -0.00000  -0.01052   0.01431   0.00000
 965  H 10  px       0.00483  -0.00000  -0.01925   0.03893   0.00000
 966  H 10  py       0.02836  -0.00000   0.01747   0.01702   0.00000
 967  H 10  pz       0.04222  -0.00000   0.00527   0.04601   0.00000
 968  H 10  d 1      0.00002   0.00000  -0.00004   0.00004   0.00000
 969  H 10  d 2     -0.00055   0.00000   0.00062   0.00055   0.00000
 970  H 10  d 3     -0.00015  -0.00000   0.00024   0.00002  -0.00000
 971  H 10  d 4      0.00011   0.00000   0.00006  -0.00021   0.00000
 972  H 10  d 5      0.00002   0.00000  -0.00034  -0.00004   0.00000
 973  H 10  d 1     -0.00028   0.00000   0.00028   0.00009  -0.00000
 974  H 10  d 2      0.00455  -0.00000  -0.00682  -0.00418   0.00000
 975  H 10  d 3      0.00270  -0.00000  -0.00500   0.00016   0.00000
 976  H 10  d 4     -0.00077   0.00000   0.00016   0.00136  -0.00000
 977  H 10  d 5     -0.00062   0.00000   0.00234   0.00085  -0.00000
 978  H 10  d 1      0.00001  -0.00000  -0.00190   0.00554  -0.00000
 979  H 10  d 2      0.00913  -0.00000   0.00423  -0.00072   0.00000
 980  H 10  d 3     -0.00320  -0.00000   0.01746   0.01480   0.00000
 981  H 10  d 4     -0.00041  -0.00000  -0.00385   0.01241  -0.00000
 982  H 10  d 5     -0.00295  -0.00000  -0.00404   0.00031  -0.00000
 983  H 10  f 1     -0.00005   0.00000   0.00019   0.00008  -0.00000
 984  H 10  f 2     -0.00011   0.00000   0.00009   0.00001  -0.00000
 985  H 10  f 3      0.00037  -0.00000  -0.00077  -0.00024  -0.00000
 986  H 10  f 4      0.00034  -0.00000  -0.00067  -0.00007   0.00000
 987  H 10  f 5     -0.00005   0.00000   0.00012  -0.00005  -0.00000
 988  H 10  f 6     -0.00025   0.00000   0.00057   0.00030   0.00000
 989  H 10  f 7      0.00001  -0.00000  -0.00008   0.00001  -0.00000
 990  H 10  f 1      0.00002  -0.00000  -0.00063  -0.00026  -0.00000
 991  H 10  f 2      0.00006  -0.00000  -0.00062   0.00153  -0.00000
 992  H 10  f 3      0.00226  -0.00000   0.00060  -0.00110   0.00000
 993  H 10  f 4     -0.00201   0.00000   0.00421   0.00306   0.00000
 994  H 10  f 5     -0.00028  -0.00000  -0.00095   0.00295  -0.00000
 995  H 10  f 6     -0.00044   0.00000  -0.00134  -0.00019  -0.00000
 996  H 10  f 7      0.00001   0.00000   0.00034  -0.00032   0.00000
 997  H 10  g 1     -0.00000  -0.00000   0.00002  -0.00000   0.00000
 998  H 10  g 2     -0.00001  -0.00000  -0.00001   0.00000  -0.00000
 999  H 10  g 3     -0.00005   0.00000  -0.00002   0.00019  -0.00000
1000  H 10  g 4      0.00019  -0.00000  -0.00004  -0.00009   0.00000
1001  H 10  g 5     -0.00014   0.00000   0.00016   0.00021   0.00000
1002  H 10  g 6     -0.00002  -0.00000  -0.00005   0.00021  -0.00000
1003  H 10  g 7     -0.00017  -0.00000   0.00013   0.00012  -0.00000
1004  H 10  g 8      0.00001  -0.00000   0.00001  -0.00004   0.00000
1005  H 10  g 9     -0.00001  -0.00000   0.00004   0.00001   0.00000
1006  O 6   s        0.00031   0.00000  -0.00047  -0.00004  -0.00000
1007  O 6   s       -0.09808   0.00000  -0.03193   0.00177   0.00000
1008  O 6   s       -0.00648  -0.00000  -0.00354   0.00043  -0.00000
1009  O 6   s       -0.11512   0.00000  -0.05896   0.02986   0.00000
1010  O 6   s       -0.00109   0.00000   0.26794  -0.32903  -0.00000
1011  O 6   s        0.46930   0.00000   1.03911  -0.48988  -0.00000
1012  O 6   px       0.02361  -0.00000   0.02609  -0.02118  -0.00000
1013  O 6   py      -0.00827   0.00000  -0.02999  -0.01772   0.00000
1014  O 6   pz       0.01366  -0.00000  -0.00155  -0.01923   0.00000
1015  O 6   px       0.03984   0.00000   0.04592  -0.03711  -0.00000
1016  O 6   py      -0.01540   0.00000  -0.05075  -0.02433   0.00000
1017  O 6   pz       0.02283  -0.00000   0.00165  -0.03210   0.00000
1018  O 6   px       0.03690  -0.00000   0.02960  -0.02325  -0.00000
1019  O 6   py       0.00089   0.00000  -0.06643  -0.07576  -0.00000
1020  O 6   pz       0.03174  -0.00000  -0.04168  -0.03657   0.00000
1021  O 6   px      -0.06874  -0.00000  -0.10549   0.09534   0.00000
1022  O 6   py       0.07808   0.00000   0.01482  -0.15838   0.00000
1023  O 6   pz      -0.05006  -0.00000  -0.17482  -0.02332   0.00000
1024  O 6   px       0.04215  -0.00000  -0.11716   0.10207  -0.00000
1025  O 6   py       0.20926   0.00000   0.10816  -0.26585   0.00000
1026  O 6   pz       0.02964  -0.00000  -0.47159  -0.18960   0.00000
1027  O 6   d 1     -0.00003   0.00000  -0.00008  -0.00012  -0.00000
1028  O 6   d 2      0.00021  -0.00000   0.00004   0.00008  -0.00000
1029  O 6   d 3      0.00012   0.00000   0.00005  -0.00011  -0.00000
1030  O 6   d 4      0.00014   0.00000  -0.00015   0.00000   0.00000
1031  O 6   d 5      0.00015  -0.00000   0.00009   0.00012  -0.00000
1032  O 6   d 1     -0.00006  -0.00000   0.00104   0.00004   0.00000
1033  O 6   d 2      0.00118  -0.00000   0.00082  -0.00092   0.00000
1034  O 6   d 3      0.00014  -0.00000   0.00039  -0.00030   0.00000
1035  O 6   d 4     -0.00118  -0.00000  -0.00021   0.00012   0.00000
1036  O 6   d 5     -0.00171   0.00000  -0.00065   0.00058   0.00000
1037  O 6   d 1     -0.00783   0.00000  -0.00562   0.01278  -0.00000
1038  O 6   d 2      0.00270   0.00000   0.01284  -0.01081  -0.00000
1039  O 6   d 3     -0.00007   0.00000   0.01250  -0.00047  -0.00000
1040  O 6   d 4      0.00713   0.00000   0.01286   0.00093  -0.00000
1041  O 6   d 5      0.00280  -0.00000   0.00004   0.00721   0.00000
1042  O 6   d 1      0.00604   0.00000   0.00085   0.06824  -0.00000
1043  O 6   d 2     -0.03412   0.00000   0.01959  -0.03026  -0.00000
1044  O 6   d 3      0.00118   0.00000   0.04441   0.00646  -0.00000
1045  O 6   d 4      0.02175   0.00000   0.03838   0.01590  -0.00000
1046  O 6   d 5     -0.01697  -0.00000  -0.02571   0.02212   0.00000
1047  O 6   f 1      0.00003   0.00000   0.00003   0.00023   0.00000
1048  O 6   f 2     -0.00033  -0.00000  -0.00005  -0.00022  -0.00000
1049  O 6   f 3     -0.00006  -0.00000   0.00001  -0.00023   0.00000
1050  O 6   f 4     -0.00012  -0.00000   0.00009  -0.00000   0.00000
1051  O 6   f 5     -0.00001  -0.00000   0.00010  -0.00001   0.00000
1052  O 6   f 6      0.00001  -0.00000   0.00026  -0.00001  -0.00000
1053  O 6   f 7     -0.00004   0.00000  -0.00011   0.00005  -0.00000
1054  O 6   f 1     -0.00028  -0.00000  -0.00039  -0.00107  -0.00000
1055  O 6   f 2      0.00116  -0.00000  -0.00094   0.00221   0.00000
1056  O 6   f 3      0.00020  -0.00000  -0.00128   0.00146  -0.00000
1057  O 6   f 4      0.00009  -0.00000  -0.00128   0.00127  -0.00000
1058  O 6   f 5      0.00005  -0.00000  -0.00186   0.00026  -0.00000
1059  O 6   f 6     -0.00037  -0.00000  -0.00150   0.00080   0.00000
1060  O 6   f 7      0.00072   0.00000   0.00084  -0.00154   0.00000
1061  O 6   f 1     -0.00199  -0.00000  -0.00622  -0.00141   0.00000
1062  O 6   f 2      0.00889   0.00000  -0.00053  -0.00394   0.00000
1063  O 6   f 3      0.00532   0.00000   0.00047   0.00347   0.00000
1064  O 6   f 4      0.00503  -0.00000  -0.00505   0.00804   0.00000
1065  O 6   f 5      0.00010  -0.00000  -0.00844  -0.00730   0.00000
1066  O 6   f 6     -0.00471  -0.00000  -0.00385  -0.00271   0.00000
1067  O 6   f 7     -0.00689  -0.00000  -0.00081  -0.00963  -0.00000
1068  O 6   g 1     -0.00004  -0.00000  -0.00012  -0.00011  -0.00000
1069  O 6   g 2      0.00004   0.00000   0.00012  -0.00000  -0.00000
1070  O 6   g 3      0.00001   0.00000   0.00024   0.00003  -0.00000
1071  O 6   g 4     -0.00004  -0.00000   0.00013   0.00009   0.00000
1072  O 6   g 5     -0.00006  -0.00000  -0.00001   0.00012  -0.00000
1073  O 6   g 6     -0.00001   0.00000   0.00011  -0.00016   0.00000
1074  O 6   g 7     -0.00009  -0.00000  -0.00001  -0.00010   0.00000
1075  O 6   g 8      0.00014   0.00000   0.00001  -0.00025   0.00000
1076  O 6   g 9     -0.00000  -0.00000  -0.00008   0.00007  -0.00000
1077  O 6   g 1     -0.00012   0.00000   0.00076  -0.00015  -0.00000
1078  O 6   g 2     -0.00084  -0.00000  -0.00076   0.00055  -0.00000
1079  O 6   g 3     -0.00077  -0.00000  -0.00117  -0.00021  -0.00000
1080  O 6   g 4     -0.00018   0.00000  -0.00018   0.00024   0.00000
1081  O 6   g 5      0.00085  -0.00000  -0.00008  -0.00163   0.00000
1082  O 6   g 6     -0.00094  -0.00000   0.00001   0.00057  -0.00000
1083  O 6   g 7      0.00115   0.00000   0.00059   0.00081  -0.00000
1084  O 6   g 8     -0.00109   0.00000  -0.00012   0.00056   0.00000
1085  O 6   g 9      0.00063   0.00000   0.00111   0.00043   0.00000
1086  O 6   h 1      0.00015   0.00000   0.00019   0.00003   0.00000
1087  O 6   h 2     -0.00022   0.00000  -0.00006  -0.00009   0.00000
1088  O 6   h 3      0.00010  -0.00000   0.00006  -0.00017   0.00000
1089  O 6   h 4      0.00012  -0.00000  -0.00004  -0.00016  -0.00000
1090  O 6   h 5      0.00028  -0.00000   0.00005  -0.00012  -0.00000
1091  O 6   h 6     -0.00020   0.00000  -0.00015   0.00011  -0.00000
1092  O 6   h 7      0.00002  -0.00000   0.00010   0.00005   0.00000
1093  O 6   h 8     -0.00010  -0.00000  -0.00009  -0.00022  -0.00000
1094  O 6   h 9     -0.00024   0.00000   0.00007   0.00009  -0.00000
1095  O 6   h10      0.00013   0.00000   0.00015  -0.00001   0.00000
1096  O 6   h11      0.00004  -0.00000  -0.00008   0.00001   0.00000
1097  H 11  s        0.00755   0.00000   0.00431   0.00038  -0.00000
1098  H 11  s        0.02843   0.00000   0.01622  -0.01857   0.00000
1099  H 11  s        0.07110  -0.00000  -0.01038   0.20605  -0.00000
1100  H 11  s       -0.69047  -0.00000  -0.65667   0.50708  -0.00000
1101  H 11  s        0.56814  -0.00000   1.01917   0.42010  -0.00000
1102  H 11  px      -0.00133   0.00000  -0.00174  -0.00033   0.00000
1103  H 11  py       0.00194   0.00000   0.00196   0.00020   0.00000
1104  H 11  pz       0.00131  -0.00000   0.00076  -0.00002   0.00000
1105  H 11  px       0.00374   0.00000   0.00470  -0.00269  -0.00000
1106  H 11  py      -0.00416  -0.00000  -0.00351   0.00329  -0.00000
1107  H 11  pz      -0.00395   0.00000  -0.00045   0.00179   0.00000
1108  H 11  px      -0.02722  -0.00000  -0.05552   0.03794   0.00000
1109  H 11  py       0.03663  -0.00000   0.05388  -0.06428  -0.00000
1110  H 11  pz       0.03537  -0.00000   0.01883  -0.04221  -0.00000
1111  H 11  px      -0.18464  -0.00000  -0.13955   0.11201  -0.00000
1112  H 11  py       0.17574   0.00000   0.13615  -0.14906   0.00000
1113  H 11  pz       0.10079   0.00000   0.14850  -0.04678   0.00000
1114  H 11  d 1      0.00034  -0.00000  -0.00024   0.00063   0.00000
1115  H 11  d 2      0.00044   0.00000  -0.00022  -0.00101   0.00000
1116  H 11  d 3      0.00025  -0.00000  -0.00021   0.00005   0.00000
1117  H 11  d 4      0.00019  -0.00000   0.00057   0.00043  -0.00000
1118  H 11  d 5     -0.00012   0.00000   0.00007   0.00015   0.00000
1119  H 11  d 1     -0.00196   0.00000   0.00381  -0.00586  -0.00000
1120  H 11  d 2     -0.00331  -0.00000   0.00004   0.00899   0.00000
1121  H 11  d 3     -0.00191   0.00000   0.00240  -0.00070  -0.00000
1122  H 11  d 4     -0.00026   0.00000  -0.00138  -0.00427   0.00000
1123  H 11  d 5      0.00113  -0.00000   0.00001  -0.00305  -0.00000
1124  H 11  d 1      0.04485   0.00000   0.03409  -0.03144  -0.00000
1125  H 11  d 2     -0.02792   0.00000  -0.02567   0.01743  -0.00000
1126  H 11  d 3      0.01470   0.00000   0.00790  -0.01537   0.00000
1127  H 11  d 4      0.03131   0.00000   0.03012  -0.01762  -0.00000
1128  H 11  d 5      0.00468  -0.00000   0.00117  -0.01434   0.00000
1129  H 11  f 1     -0.00037   0.00000   0.00005  -0.00003   0.00000
1130  H 11  f 2      0.00032  -0.00000   0.00012   0.00034  -0.00000
1131  H 11  f 3      0.00034  -0.00000  -0.00026  -0.00028   0.00000
1132  H 11  f 4      0.00014  -0.00000   0.00002   0.00020   0.00000
1133  H 11  f 5     -0.00008   0.00000   0.00026  -0.00004  -0.00000
1134  H 11  f 6      0.00002   0.00000   0.00022   0.00031   0.00000
1135  H 11  f 7     -0.00035  -0.00000   0.00011  -0.00020   0.00000
1136  H 11  f 1      0.00299   0.00000   0.00280  -0.00094  -0.00000
1137  H 11  f 2     -0.00718  -0.00000  -0.00525   0.00556   0.00000
1138  H 11  f 3     -0.00031   0.00000   0.00042   0.00153  -0.00000
1139  H 11  f 4     -0.00448  -0.00000  -0.00303   0.00404   0.00000
1140  H 11  f 5     -0.00033   0.00000  -0.00047   0.00020   0.00000
1141  H 11  f 6     -0.00207   0.00000  -0.00116   0.00197  -0.00000
1142  H 11  f 7      0.00504   0.00000   0.00350  -0.00521   0.00000
1143  H 11  g 1     -0.00013   0.00000  -0.00007   0.00019  -0.00000
1144  H 11  g 2     -0.00017  -0.00000  -0.00023   0.00005  -0.00000
1145  H 11  g 3      0.00017   0.00000   0.00004  -0.00008  -0.00000
1146  H 11  g 4      0.00026   0.00000   0.00015  -0.00030  -0.00000
1147  H 11  g 5      0.00022  -0.00000   0.00011  -0.00009   0.00000
1148  H 11  g 6     -0.00019  -0.00000  -0.00016   0.00015  -0.00000
1149  H 11  g 7      0.00010  -0.00000   0.00004  -0.00001   0.00000
1150  H 11  g 8     -0.00042   0.00000  -0.00028   0.00045   0.00000
1151  H 11  g 9      0.00021   0.00000   0.00026  -0.00023  -0.00000
1152  H 12  s        0.00694  -0.00000   0.00216  -0.00239   0.00000
1153  H 12  s        0.02086   0.00000   0.02594  -0.01215   0.00000
1154  H 12  s        0.03421  -0.00000  -0.18386  -0.00490   0.00000
1155  H 12  s       -0.44957  -0.00000  -0.96222   0.31023   0.00000
1156  H 12  s        0.78750  -0.00000   0.00378  -0.88836   0.00000
1157  H 12  px      -0.00122   0.00000  -0.00037   0.00089  -0.00000
1158  H 12  py      -0.00096   0.00000  -0.00003   0.00051   0.00000
1159  H 12  pz      -0.00229   0.00000  -0.00063   0.00198  -0.00000
1160  H 12  px       0.00188   0.00000   0.00374  -0.00303   0.00000
1161  H 12  py       0.00191   0.00000   0.00034  -0.00129   0.00000
1162  H 12  pz       0.00302   0.00000   0.00438  -0.00543   0.00000
1163  H 12  px      -0.01530  -0.00000  -0.04826   0.03736   0.00000
1164  H 12  py      -0.03284  -0.00000  -0.03472   0.01570   0.00000
1165  H 12  pz      -0.04875  -0.00000  -0.08839   0.05028   0.00000
1166  H 12  px      -0.09204  -0.00000  -0.20356   0.06252   0.00000
1167  H 12  py      -0.10614  -0.00000  -0.14526   0.08854   0.00000
1168  H 12  pz      -0.15075  -0.00000  -0.23164   0.11470   0.00000
1169  H 12  d 1     -0.00067  -0.00000  -0.00050   0.00021   0.00000
1170  H 12  d 2      0.00046   0.00000   0.00029  -0.00020  -0.00000
1171  H 12  d 3     -0.00014   0.00000   0.00076   0.00007   0.00000
1172  H 12  d 4     -0.00043   0.00000   0.00069  -0.00030   0.00000
1173  H 12  d 5     -0.00007   0.00000  -0.00022  -0.00017  -0.00000
1174  H 12  d 1      0.00221   0.00000   0.00029  -0.00036   0.00000
1175  H 12  d 2     -0.00431  -0.00000  -0.00626   0.00052  -0.00000
1176  H 12  d 3     -0.00069  -0.00000  -0.00749   0.00041   0.00000
1177  H 12  d 4      0.00187  -0.00000  -0.00628   0.00333   0.00000
1178  H 12  d 5      0.00130  -0.00000   0.00164   0.00187  -0.00000
1179  H 12  d 1     -0.02772  -0.00000  -0.03784   0.01452   0.00000
1180  H 12  d 2     -0.02629  -0.00000  -0.03302   0.02489  -0.00000
1181  H 12  d 3     -0.02132  -0.00000  -0.02008   0.01650  -0.00000
1182  H 12  d 4     -0.01945  -0.00000  -0.04536   0.03118   0.00000
1183  H 12  d 5      0.00759   0.00000  -0.00903   0.00453  -0.00000
1184  H 12  f 1      0.00012   0.00000   0.00007   0.00007   0.00000
1185  H 12  f 2      0.00015  -0.00000   0.00008  -0.00005   0.00000
1186  H 12  f 3     -0.00006  -0.00000  -0.00044  -0.00035   0.00000
1187  H 12  f 4      0.00010  -0.00000  -0.00014   0.00015   0.00000
1188  H 12  f 5      0.00019  -0.00000  -0.00028  -0.00004   0.00000
1189  H 12  f 6      0.00002  -0.00000   0.00014   0.00020  -0.00000
1190  H 12  f 7     -0.00013  -0.00000  -0.00017   0.00001   0.00000
1191  H 12  f 1     -0.00106  -0.00000  -0.00247   0.00090  -0.00000
1192  H 12  f 2     -0.00464  -0.00000  -0.00826   0.00365  -0.00000
1193  H 12  f 3     -0.00472  -0.00000  -0.00508   0.00414  -0.00000
1194  H 12  f 4     -0.00160  -0.00000  -0.00067  -0.00142  -0.00000
1195  H 12  f 5     -0.00190  -0.00000  -0.00672   0.00480  -0.00000
1196  H 12  f 6      0.00304  -0.00000  -0.00185   0.00129  -0.00000
1197  H 12  f 7      0.00261   0.00000   0.00239   0.00043  -0.00000
1198  H 12  g 1      0.00001  -0.00000   0.00002   0.00008   0.00000
1199  H 12  g 2     -0.00009   0.00000  -0.00031   0.00018   0.00000
1200  H 12  g 3     -0.00033  -0.00000  -0.00060   0.00027  -0.00000
1201  H 12  g 4     -0.00024  -0.00000  -0.00030   0.00006  -0.00000
1202  H 12  g 5      0.00001   0.00000   0.00019  -0.00018  -0.00000
1203  H 12  g 6     -0.00008  -0.00000  -0.00027   0.00014  -0.00000
1204  H 12  g 7      0.00032   0.00000  -0.00012   0.00009   0.00000
1205  H 12  g 8      0.00028   0.00000   0.00019   0.00001   0.00000
1206  H 12  g 9      0.00011  -0.00000   0.00011   0.00000   0.00000

 -----------------------------------------------------------------
                    Cartesian Multipole Moments
 -----------------------------------------------------------------
    Charge (ESU x 10^10)
                 0.0000
    Dipole Moment (Debye)
         X      -2.2825      Y      -3.7041      Z      -3.4897
       Tot       5.5775
    Quadrupole Moments (Debye-Ang)
        XX     -85.1187     XY      38.5034     YY     -45.3646
        XZ     -25.1044     YZ       5.3843     ZZ     -46.0542
    Octopole Moments (Debye-Ang^2)
       XXX    -216.1017    XXY    -787.2073    XYY    -149.7567
       YYY     -58.1531    XXZ    -189.8295    XYZ      85.9329
       YYZ      -3.3388    XZZ      21.7035    YZZ     -12.2193
       ZZZ      -8.4990
    Hexadecapole Moments (Debye-Ang^3)
      XXXX  -31373.1212   XXXY    8552.9152   XXYY   -3835.3241
      XYYY    -234.8531   YYYY    -759.4210   XXXZ   -1681.8230
      XXYZ     -45.2774   XYYZ     307.8086   YYYZ     121.7837
      XXZZ   -5461.3982   XYZZ    -203.2304   YYZZ    -210.5815
      XZZZ     447.6602   YZZZ      48.4272   ZZZZ    -339.4172
 -----------------------------------------------------------------
 Total job time:  98780.60s(wall), 195885.30s(cpu) 
 Tue Dec 31 18:04:25 2024

        *************************************************************
        *                                                           *
        *  Thank you very much for using Q-Chem.  Have a nice day.  *
        *                                                           *
        *************************************************************


