                  Welcome to Q-Chem
     A Quantum Leap Into The Future Of Chemistry


 Q-Chem 6.2 (devel), Q-Chem, Inc., Pleasanton, CA (2024)

 E. Epifanovsky,  A. T. B. Gilbert,  Xintian Feng,  Joonho Lee,  Yuezhi Mao,  
 N. Mardirossian,  P. Pokhilko,  A. White,  M. Wormit,  M. P. Coons,  
 A. L. Dempwolff,  Zhengting Gan,  D. Hait,  P. R. Horn,  L. D. Jacobson,  
 I. Kaliman,  J. Kussmann,  A. W. Lange,  Ka Un Lao,  D. S. Levine,  Jie Liu,  
 S. C. McKenzie,  A. F. Morrison,  K. D. Nanda,  F. Plasser,  D. R. Rehn,  
 M. L. Vidal,  Zhi-Qiang You,  Ying Zhu,  Huseyin Aksu,  B. Alam,  
 B. Albrecht,  A. Aldossary,  E. Alguire,  J. H. Andersen,  
 J. E. Arias-Martinez,  V. Athavale,  D. Barton,  K. Begam,  A. Behn,  
 N. Bellonzi,  Y. A. Bernard,  E. J. Berquist,  H. Burton,  A. Carreras,  
 K. Carter-Fenk,  Mathew Chow,  Romit Chakraborty,  Chandrima Chakravarty,  
 Junhan Chen,  A. D. Chien,  K. D. Closser,  V. Cofer-Shabica,  L. Cunha,  
 S. Dasgupta,  Jia Deng,  Joseph Dickinson,  M. de Wergifosse,  
 M. Diedenhofen,  Hainam Do,  Wenjie Dou,  S. Ehlert,  Po-Tung Fang,  
 S. Fatehi,  Qingguo Feng,  Jonathan Fetherolf,  T. Friedhoff,  
 Thomas Froitzheim,  Sarai Folkestad,  B. Ganoe,  J. Gayvert,  Qinghui Ge,  
 G. Gidofalvi,  M. Gimferrer,  M. Goldey,  Montgomery Gray,  J. Gomes,  
 C. Gonzalez-Espinoza,  S. Gulania,  A. Gunina,  J. A. Gyamfi,  
 M. W. D. Hanson-Heine,  P. H. P. Harbach,  A. W. Hauser,  M. F. Herbst,  
 M. Hernandez Vera,  M. Hodecker,  Z. C. Holden,  S. Houck,  Xunkun Huang,  
 Kerwin Hui,  B. C. Huynh,  K. Ikeda,  M. Ivanov,  Nayanthara K. Jayadev,  
 Hyunjun Ji,  Zuxin Jin,  Hanjie Jiang,  Subrata Jana,  B. Kaduk,  
 S. Kaehler,  R. Kang,  K. Khistyaev,  Jaehoon Kim,  Yongbin Kim,  
 P. Klunzinger,  Z. Koczor-Benda,  Joong Hoon Koh,  D. Kosenkov,  
 Saikiran Kotaru,  L. Koulias,  T. Kowalczyk,  C. M. Krauter,  K. Kue,  
 A. Kunitsa,  T. Kus,  A. Landau,  K. V. Lawler,  D. Lefrancois,  S. Lehtola,  
 Rain Li,  Shaozhi Li,  Tao E. Li,  Yi-Pei Li,  Jiashu Liang,  M. Liebenthal,  
 Hung-Hsuan Lin,  You-Sheng Lin,  Fenglai Liu,  Kuan-Yu Liu,  Xiao Liu,  
 M. Loipersberger,  A. Luenser,  C. Malbon,  Aniket Mandal,  Manisha,  
 A. Manjanath,  P. Manohar,  E. Mansoor,  S. F. Manzer,  Shan-Ping Mao,  
 A. V. Marenich,  T. Markovich,  S. Mason,  F. Matz,  S. A. Maurer,  
 Samuel May,  Alexandra McIsaac,  P. F. McLaughlin,  M. F. S. J. Menger,  
 J.-M. Mewes,  S. A. Mewes,  P. Morgante,  Mohammad Mostafanejad,  
 Madhubani Mukherjee,  J. W. Mullinax,  Quyen Nguyen,  Avik Kumar Ojha,  
 K. J. Oosterbaan,  Eno Paenurk,  Xiaoliang Pan,  G. Paran,  V. Parravicini,  
 Alexander C. Paul,  Suranjan K. Paul,  F. Pavosevic,  Zheng Pei,  S. Prager,  
 E. I. Proynov,  E. Ramos,  B. Rana,  A. E. Rask,  A. Rettig,  R. M. Richard,  
 F. Rob,  E. Rossomme,  T. Scheele,  M. Scheurer,  M. Schneider,  
 P. E. Schneider,  Tim K. Schramm,  N. Sergueev,  S. M. Sharada,  
 Hengyuan Shen,  W. Skomorowski,  D. W. Small,  C. J. Stein,  
 Alistair J. Sterling,  Yingli Su,  Yu-Chuan Su,  E. J. Sundstrom,  
 J. Talbot,  Zhen Tao,  J. Thirman,  Hung-Yi Tsai,  T. Tsuchimochi,  
 N. M. Tubman,  C. Utku,  S. P. Veccham,  O. Vydrov,  Rahel Weiss,  
 J. Wenzel,  Jonathan Wong,  J. Witte,  H. Wu,  Yanze Wu,  A. Yamada,  
 Chou-Hsun Yang,  Kun Yao,  S. Yeganeh,  S. R. Yost,  Qi Yu,  A. Zech,  
 F. Zeller,  Chongxiao Zhao,  Igor Ying Zhang,  Xing Zhang,  Yu Zhang,  
 D. Zuev,  A. Aspuru-Guzik,  A. T. Bell,  N. A. Besley,  K. B. Bravaya,  
 B. R. Brooks,  D. Casanova,  Jeng-Da Chai,  Hsing-Ta Chen,  S. Coriani,  
 C. J. Cramer,  A. E. DePrince, III,  R. A. DiStasio Jr.,  A. Dreuw,  
 B. D. Dunietz,  T. R. Furlani,  W. A. Goddard III,  S. Grimme,  
 S. Hammes-Schiffer,  T. Head-Gordon,  W. J. Hehre,  Chao-Ping Hsu,  
 T.-C. Jagau,  Yousung Jung,  A. Klamt,  Jing Kong,  D. S. Lambrecht,  
 Xiangyuan Li,  WanZhen Liang,  N. J. Mayhall,  C. W. McCurdy,  J. B. Neaton,  
 T. Neudecker,  C. Ochsenfeld,  J. A. Parkhill,  R. Peverati,  
 V. A. Rassolov,  Haisheng Ren,  Yihan Shao,  L. V. Slipchenko,  
 R. P. Steele,  J. E. Subotnik,  A. J. W. Thom,  A. Tkatchenko,  
 D. G. Truhlar,  T. Van Voorhis,  Fan Wang,  T. A. Wesolowski,  K. B. Whaley,  
 H. L. Woodcock III,  P. M. Zimmerman,  S. Faraji,  P. M. W. Gill,  
 M. Head-Gordon,  J. M. Herbert,  A. I. Krylov

 Contributors to earlier versions of Q-Chem not listed above: 
 R. D. Adamson,  B. Austin,  R. Baer,  J. Baker,  G. J. O. Beran,  
 K. Brandhorst,  S. T. Brown,  E. F. C. Byrd,  Arup K. Chakraborty,  
 G. K. L. Chan,  Chun-Min Chang,  Yunqing Chen,  C.-L. Cheng,  
 Siu Hung Chien,  D. M. Chipman,  D. L. Crittenden,  H. Dachsel,  
 R. J. Doerksen,  A. D. Dutoi,  R. G. Edgar,  J. Fosso-Tande,  
 L. Fusti-Molnar,  D. Ghosh,  A. Ghysels,  A. Golubeva-Zadorozhnaya,  
 J. Gonthier,  M. S. Gordon,  S. R. Gwaltney,  G. Hawkins,  J. E. Herr,  
 A. Heyden,  S. Hirata,  E. G. Hohenstein,  G. Kedziora,  F. J. Keil,  
 C. Kelley,  Jihan Kim,  R. A. King,  R. Z. Khaliullin,  P. P. Korambath,  
 W. Kurlancheek,  A. Laurent,  A. M. Lee,  M. S. Lee,  S. V. Levchenko,  
 Ching Yeh Lin,  D. Liotard,  E. Livshits,  R. C. Lochan,  I. Lotan,  
 L. A. Martinez-Martinez,  P. E. Maslen,  N. Nair,  D. P. O'Neill,  
 D. Neuhauser,  E. Neuscamman,  C. M. Oana,  R. Olivares-Amaya,  R. Olson,  
 T. M. Perrine,  B. Peters,  P. A. Pieniazek,  A. Prociuk,  Y. M. Rhee,  
 J. Ritchie,  M. A. Rohrdanz,  E. Rosta,  N. J. Russ,  H. F. Schaefer III,  
 M. W. Schmidt,  N. E. Schultz,  S. Sharma,  N. Shenvi,  C. D. Sherrill,  
 A. C. Simmonett,  A. Sodt,  T. Stein,  D. Stuck,  K. S. Thanthiriwatte,  
 V. Vanovschi,  L. Vogt,  Tao Wang,  A. Warshel,  M. A. Watson,  
 C. F. Williams,  Q. Wu,  X. Xu,  Jun Yang,  W. Zhang,  Yan Zhao

   Please cite Q-Chem as follows:
  "Software for the frontiers of quantum chemistry:
   An overview of developments in the Q-Chem 5 package"
   J. Chem. Phys. 155, 084801 (2021)
   https://doi.org/10.1063/5.0055522 (open access)

 Q-Chem 6.2.2 for Intel X86 EM64T Linux

 Parts of Q-Chem use Armadillo 9.900.5 (Nocturnal Misbehaviour).
 http://arma.sourceforge.net/

 Q-Chem begins on Thu Dec 19 22:06:46 2024  

 Host: compute-0-8.local
0

     Scratch files written to /scratch/keith/A1D2_1//
 Processing $rem in /home/keith/software/qchem/qchem_622/config/preferences:
 Processing $rem in /home/keith/.qchemrc:

 Checking the input file for inconsistencies... 	...done.

--------------------------------------------------------------
User input:
--------------------------------------------------------------
$molecule
read
$end

$rem
method                    b3lyp 
basis                     cc-pv5z 
mem_total                 63000
mem_static                8000
thresh                    12
scf_convergence           8
xc_grid                   000075000302
max_scf_cycles            2000
symmetry                  false
sym_ignore                true
scf_guess                 read
mom_start                 1
cis_n_roots               100
cis_triplets              false
rpa                       false 
trnss                     true
trtype                    2
n_sol                     83
nto_pairs                 2
gui                       2
print_orbitals            true
state_analysis            true
$end

$solute 
4 1063 1064 1065 1066 1067 1068 1069 1070 1071 1072 1073 1074 1075 1076 1077 1078 1079 1080 1081 1082 1083 1084 1085 1086 1087 1088 1089 1090 1091 1092 1093 1094 1095 1096 1097 1098 1099 1100 1101 1102 1103 1104 1105 1106 1107 1108 1109 1110 1111 1112 1113 1114 1115 1116 1117 1118 1119 1120 1121 1122 1123 1124 1125 1126 1127 1128 1129 1130 1131 1132 1133 1134 1135 1136 1137 1138 1139 1140 1141 1142 1143 1144
$end
--------------------------------------------------------------
 ----------------------------------------------------------------
             Standard Nuclear Orientation (Angstroms)
    I     Atom           X                Y                Z
 ----------------------------------------------------------------
    1      O       9.0019000000    -0.1083900000     1.0267100000
    2      H       9.1659000000    -0.9063900000     0.4877100000
    3      H       8.1679000000     0.2116100000     0.6197100000
    4      O     -15.3831000000    -2.0999900000    -0.6202900000
    5      H     -15.8021000000    -2.9438000000    -0.7262900000
    6      H     -14.5111000000    -2.2966700000    -0.2002900000
    7      O     -14.3271000000     1.1120100000     1.5607100000
    8      H     -15.1961000000     0.7325100000     1.5117100000
    9      H     -13.5911000000     0.5688100000     1.3287100000
   10      O       8.0639000000     2.6348100000    -1.4822900000
   11      H       7.5400000000     1.8343100000    -1.3332900000
   12      H       8.9869000000     2.3544100000    -1.4732900000
   13      O       6.5009000000    -2.0648400000     0.3077100000
   14      H       6.3950000000    -1.0744900000     0.2787100000
   15      H       6.5178000000    -2.3091900000    -0.6432900000
   16      O       6.1994000000     0.6544100000    -0.6692900000
   17      H       5.6838000000     1.4035100000    -0.3382900000
   18      H       5.7558000000     0.3939100000    -1.4682900000
 ----------------------------------------------------------------
 Nuclear Repulsion Energy =         181.32011018 hartrees
 There are       30 alpha and       30 beta electrons
 Requested basis set is cc-pV5Z
 There are 306 shells and 1206 basis functions

 Total QAlloc Memory Limit  63000 MB
 Mega-Array Size      7821 MB
 MEM_STATIC part      8000 MB

 A cutoff of  1.0D-12 yielded  20025 shell pairs
 There are    284671 function pairs (    480920 Cartesian)
 Smallest overlap matrix eigenvalue = 3.28E-05

 Scale SEOQF with 1.000000e-02/1.000000e-01/1.000000e-01

 Standard Electronic Orientation quadrupole field applied
 Nucleus-field energy     =     0.0000000291 hartrees
 Guess MOs from SCF MO coefficient file

 -----------------------------------------------------------------------
  General SCF calculation program by
  Eric Jon Sundstrom, Paul Horn, Yuezhi Mao, Dmitri Zuev, Alec White,
  David Stuck, Shaama M.S., Shane Yost, Joonho Lee, David Small,
  Daniel Levine, Susi Lehtola, Hugh Burton, Evgeny Epifanovsky,
  Bang C. Huynh
 -----------------------------------------------------------------------
 Exchange:     0.2000 Hartree-Fock + 0.0800 Slater + 0.7200 B88
 Correlation:  0.1900 VWN1RPA + 0.8100 LYP
 Using Euler-Maclaurin-Lebedev (75,302) quadrature formula
 A restricted SCF calculation will be
 performed using DIIS
 SCF converges when DIIS error is below 1.0e-08
 ---------------------------------------
  Cycle       Energy         DIIS error
 ---------------------------------------
Maximum Overlap Method Active
 MOM overlap:    30.0 / 30
    1    -458.8433208342      1.04e-09  
    2    -458.8433208342      1.68e-09  Convergence criterion met
Maximum Overlap Method Active
 MOM overlap:    30.00 / 30
 ---------------------------------------
 SCF time:   CPU 8269.76s  wall 2078.00s 
 SCF   energy =  -458.84332083
 Total energy =  -458.84332083
 MAX_CIS_SUBSPACE fits in available memory
 Direct TDDFT/TDA calculation will be performed
 Exchange:     0.2000 Hartree-Fock + 0.0800 Slater + 0.7200 B88
 Correlation:  0.1900 VWN1RPA + 0.8100 LYP
 Using Euler-Maclaurin-Lebedev (75,302) quadrature formula
 Singlet excitation energies requested
 CIS energy converged when residual is below 10e- 6
   
 ***Using a Restricted Set of Single Excitations***
   
 RCIS calculation
   
 Excitations limited to defined orbital subspace
 -------------------------------------------------------------
              Orbitals in Truncated CIS space
 -------------------------------------------------------------
     410631064106510661067106810691070107110721073107410751076
  107710781079108010811082108310841085108610871088108910901091
  109210931094109510961097109810991100110111021103110411051106
  110711081109111011111112111311141115111611171118111911201121
  112211231124112511261127112811291130113111321133113411351136
  11371138113911401141114211431144
   
    Number of Occupied Orbitals =    1  out of    30
    Number of Virtual Orbitals  =   82  out of  1176
 -------------------------------------------------------------
 Number of Roots adjusted to:          82
 ---------------------------------------------------
 Iter    Rts Conv    Rts Left    Ttl Dev     Max Dev
 ---------------------------------------------------
   1        82           0      0.007725    0.000584    Roots Converged
 ---------------------------------------------------

 ---------------------------------------------------
         TDDFT/TDA Excitation Energies              
 ---------------------------------------------------

 Excited state   1: excitation energy (eV) =    1015.5947
 Total energy for state   1:                  -421.52090295 au
    Multiplicity: Singlet
    Trans. Mom.:  0.0019 X   0.0014 Y  -0.0000 Z
    Strength   :     0.0001436989
    D(    4) --> V( 1035) amplitude =  0.9936

 Excited state   2: excitation energy (eV) =    1016.1125
 Total energy for state   2:                  -421.50187586 au
    Multiplicity: Singlet
    Trans. Mom.: -0.0069 X  -0.0043 Y  -0.0095 Z
    Strength   :     0.0039231162
    D(    4) --> V( 1036) amplitude =  0.9313
    D(    4) --> V( 1037) amplitude =  0.2519

 Excited state   3: excitation energy (eV) =    1019.4799
 Total energy for state   3:                  -421.37812721 au
    Multiplicity: Singlet
    Trans. Mom.: -0.0087 X   0.0120 Y   0.0024 Z
    Strength   :     0.0056291734
    D(    4) --> V( 1033) amplitude =  0.4052
    D(    4) --> V( 1038) amplitude =  0.3266
    D(    4) --> V( 1039) amplitude =  0.6829
    D(    4) --> V( 1040) amplitude =  0.4897

 Excited state   4: excitation energy (eV) =    1020.3374
 Total energy for state   4:                  -421.34661248 au
    Multiplicity: Singlet
    Trans. Mom.: -0.0004 X  -0.0020 Y  -0.0012 Z
    Strength   :     0.0001363831
    D(    4) --> V( 1033) amplitude =  0.3571
    D(    4) --> V( 1034) amplitude =  0.8873
    D(    4) --> V( 1036) amplitude =  0.2259

 Excited state   5: excitation energy (eV) =    1020.3908
 Total energy for state   5:                  -421.34465213 au
    Multiplicity: Singlet
    Trans. Mom.:  0.0026 X  -0.0043 Y  -0.0009 Z
    Strength   :     0.0006580160
    D(    4) --> V( 1033) amplitude =  0.8226
    D(    4) --> V( 1034) amplitude = -0.4155
    D(    4) --> V( 1039) amplitude = -0.2889

 Excited state   6: excitation energy (eV) =    1021.9017
 Total energy for state   6:                  -421.28912517 au
    Multiplicity: Singlet
    Trans. Mom.: -0.0008 X   0.0013 Y   0.0005 Z
    Strength   :     0.0000641977
    D(    4) --> V( 1036) amplitude = -0.2529
    D(    4) --> V( 1037) amplitude =  0.9396

 Excited state   7: excitation energy (eV) =    1022.0074
 Total energy for state   7:                  -421.28524111 au
    Multiplicity: Singlet
    Trans. Mom.: -0.0003 X   0.0002 Y   0.0002 Z
    Strength   :     0.0000037539
    D(    4) --> V( 1044) amplitude =  0.9744

 Excited state   8: excitation energy (eV) =    1022.8735
 Total energy for state   8:                  -421.25341275 au
    Multiplicity: Singlet
    Trans. Mom.: -0.0015 X   0.0004 Y  -0.0009 Z
    Strength   :     0.0000832465
    D(    4) --> V( 1038) amplitude =  0.9241
    D(    4) --> V( 1039) amplitude = -0.3193

 Excited state   9: excitation energy (eV) =    1024.2698
 Total energy for state   9:                  -421.20210045 au
    Multiplicity: Singlet
    Trans. Mom.:  0.0001 X   0.0008 Y   0.0009 Z
    Strength   :     0.0000344959
    D(    4) --> V( 1039) amplitude = -0.5694
    D(    4) --> V( 1040) amplitude =  0.8172

 Excited state  10: excitation energy (eV) =    1025.9436
 Total energy for state  10:                  -421.14059010 au
    Multiplicity: Singlet
    Trans. Mom.: -0.0000 X   0.0000 Y   0.0000 Z
    Strength   :     0.0000000000
    D(    4) --> V( 1041) amplitude =  1.0000

 Excited state  11: excitation energy (eV) =    1026.0229
 Total energy for state  11:                  -421.13767608 au
    Multiplicity: Singlet
    Trans. Mom.: -0.0019 X  -0.0013 Y  -0.0026 Z
    Strength   :     0.0002962385
    D(    4) --> V( 1042) amplitude =  0.2186
    D(    4) --> V( 1047) amplitude =  0.9558

 Excited state  12: excitation energy (eV) =    1026.3426
 Total energy for state  12:                  -421.12592650 au
    Multiplicity: Singlet
    Trans. Mom.: -0.0004 X   0.0005 Y   0.0002 Z
    Strength   :     0.0000112295
    D(    4) --> V( 1042) amplitude =  0.9714

 Excited state  13: excitation energy (eV) =    1026.7941
 Total energy for state  13:                  -421.10933513 au
    Multiplicity: Singlet
    Trans. Mom.:  0.0009 X  -0.0006 Y   0.0002 Z
    Strength   :     0.0000309123
    D(    4) --> V( 1043) amplitude =  0.9850

 Excited state  14: excitation energy (eV) =    1029.8654
 Total energy for state  14:                  -420.99646397 au
    Multiplicity: Singlet
    Trans. Mom.:  0.0002 X  -0.0006 Y  -0.0006 Z
    Strength   :     0.0000187952
    D(    4) --> V( 1045) amplitude =  0.9943

 Excited state  15: excitation energy (eV) =    1031.0225
 Total energy for state  15:                  -420.95394149 au
    Multiplicity: Singlet
    Trans. Mom.: -0.0000 X   0.0000 Y   0.0000 Z
    Strength   :     0.0000000000
    D(    4) --> V( 1046) amplitude =  1.0000

 Excited state  16: excitation energy (eV) =    1031.5910
 Total energy for state  16:                  -420.93305191 au
    Multiplicity: Singlet
    Trans. Mom.: -0.0069 X   0.0071 Y   0.0003 Z
    Strength   :     0.0024879424
    D(    4) --> V( 1055) amplitude = -0.4494
    D(    4) --> V( 1056) amplitude =  0.8866

 Excited state  17: excitation energy (eV) =    1032.2421
 Total energy for state  17:                  -420.90912178 au
    Multiplicity: Singlet
    Trans. Mom.:  0.0002 X  -0.0004 Y  -0.0000 Z
    Strength   :     0.0000054369
    D(    4) --> V( 1049) amplitude =  0.9962

 Excited state  18: excitation energy (eV) =    1032.3558
 Total energy for state  18:                  -420.90494629 au
    Multiplicity: Singlet
    Trans. Mom.: -0.0000 X   0.0000 Y  -0.0000 Z
    Strength   :     0.0000000000
    D(    4) --> V( 1048) amplitude =  1.0000

 Excited state  19: excitation energy (eV) =    1033.4347
 Total energy for state  19:                  -420.86529708 au
    Multiplicity: Singlet
    Trans. Mom.: -0.0002 X   0.0000 Y  -0.0000 Z
    Strength   :     0.0000014310
    D(    4) --> V( 1051) amplitude =  0.9896

 Excited state  20: excitation energy (eV) =    1033.6366
 Total energy for state  20:                  -420.85787684 au
    Multiplicity: Singlet
    Trans. Mom.: -0.0000 X  -0.0000 Y  -0.0000 Z
    Strength   :     0.0000000000
    D(    4) --> V( 1050) amplitude =  1.0000

 Excited state  21: excitation energy (eV) =    1033.6409
 Total energy for state  21:                  -420.85771936 au
    Multiplicity: Singlet
    Trans. Mom.:  0.0003 X  -0.0002 Y   0.0001 Z
    Strength   :     0.0000041848
    D(    4) --> V( 1052) amplitude =  0.9858

 Excited state  22: excitation energy (eV) =    1033.7585
 Total energy for state  22:                  -420.85339685 au
    Multiplicity: Singlet
    Trans. Mom.: -0.0004 X   0.0002 Y  -0.0003 Z
    Strength   :     0.0000088533
    D(    4) --> V( 1053) amplitude =  0.9904

 Excited state  23: excitation energy (eV) =    1036.3245
 Total energy for state  23:                  -420.75909755 au
    Multiplicity: Singlet
    Trans. Mom.:  0.0002 X   0.0001 Y   0.0001 Z
    Strength   :     0.0000012090
    D(    4) --> V( 1055) amplitude =  0.8885
    D(    4) --> V( 1056) amplitude =  0.4511

 Excited state  24: excitation energy (eV) =    1037.0197
 Total energy for state  24:                  -420.73355043 au
    Multiplicity: Singlet
    Trans. Mom.: -0.0000 X  -0.0000 Y  -0.0000 Z
    Strength   :     0.0000000000
    D(    4) --> V( 1054) amplitude =  1.0000

 Excited state  25: excitation energy (eV) =    1037.3888
 Total energy for state  25:                  -420.71998556 au
    Multiplicity: Singlet
    Trans. Mom.: -0.0000 X  -0.0001 Y   0.0001 Z
    Strength   :     0.0000007901
    D(    4) --> V( 1057) amplitude =  0.9987

 Excited state  26: excitation energy (eV) =    1037.9546
 Total energy for state  26:                  -420.69919283 au
    Multiplicity: Singlet
    Trans. Mom.: -0.0010 X   0.0000 Y  -0.0003 Z
    Strength   :     0.0000301283
    D(    4) --> V( 1061) amplitude =  0.6719
    D(    4) --> V( 1062) amplitude = -0.5041
    D(    4) --> V( 1063) amplitude = -0.5381

 Excited state  27: excitation energy (eV) =    1038.8370
 Total energy for state  27:                  -420.66676510 au
    Multiplicity: Singlet
    Trans. Mom.: -0.0000 X   0.0000 Y  -0.0000 Z
    Strength   :     0.0000000000
    D(    4) --> V( 1058) amplitude =  1.0000

 Excited state  28: excitation energy (eV) =    1039.8489
 Total energy for state  28:                  -420.62958001 au
    Multiplicity: Singlet
    Trans. Mom.: -0.0031 X  -0.0030 Y   0.0028 Z
    Strength   :     0.0006782794
    D(    4) --> V( 1066) amplitude =  0.2682
    D(    4) --> V( 1067) amplitude =  0.8330
    D(    4) --> V( 1068) amplitude =  0.4388

 Excited state  29: excitation energy (eV) =    1040.0338
 Total energy for state  29:                  -420.62278541 au
    Multiplicity: Singlet
    Trans. Mom.: -0.0009 X  -0.0009 Y   0.0007 Z
    Strength   :     0.0000534970
    D(    4) --> V( 1067) amplitude = -0.4120
    D(    4) --> V( 1068) amplitude =  0.8683

 Excited state  30: excitation energy (eV) =    1040.9497
 Total energy for state  30:                  -420.58912368 au
    Multiplicity: Singlet
    Trans. Mom.:  0.0000 X  -0.0000 Y   0.0000 Z
    Strength   :     0.0000000000
    D(    4) --> V( 1059) amplitude =  1.0000

 Excited state  31: excitation energy (eV) =    1041.5821
 Total energy for state  31:                  -420.56588301 au
    Multiplicity: Singlet
    Trans. Mom.:  0.0005 X   0.0005 Y  -0.0007 Z
    Strength   :     0.0000230936
    D(    4) --> V( 1060) amplitude =  0.9904

 Excited state  32: excitation energy (eV) =    1043.7973
 Total energy for state  32:                  -420.48447599 au
    Multiplicity: Singlet
    Trans. Mom.: -0.0012 X  -0.0011 Y   0.0018 Z
    Strength   :     0.0001505111
    D(    4) --> V( 1061) amplitude =  0.6681
    D(    4) --> V( 1062) amplitude =  0.6928

 Excited state  33: excitation energy (eV) =    1044.1457
 Total energy for state  33:                  -420.47167547 au
    Multiplicity: Singlet
    Trans. Mom.: -0.0012 X  -0.0004 Y   0.0008 Z
    Strength   :     0.0000561716
    D(    4) --> V( 1061) amplitude =  0.2643
    D(    4) --> V( 1062) amplitude = -0.5086
    D(    4) --> V( 1063) amplitude =  0.8066

 Excited state  34: excitation energy (eV) =    1044.8512
 Total energy for state  34:                  -420.44574823 au
    Multiplicity: Singlet
    Trans. Mom.:  0.0000 X   0.0006 Y  -0.0011 Z
    Strength   :     0.0000371986
    D(    4) --> V( 1064) amplitude =  0.9909

 Excited state  35: excitation energy (eV) =    1045.6233
 Total energy for state  35:                  -420.41737274 au
    Multiplicity: Singlet
    Trans. Mom.:  0.0000 X   0.0000 Y  -0.0000 Z
    Strength   :     0.0000000000
    D(    4) --> V( 1065) amplitude =  1.0000

 Excited state  36: excitation energy (eV) =    1046.0760
 Total energy for state  36:                  -420.40073537 au
    Multiplicity: Singlet
    Trans. Mom.:  0.0052 X   0.0053 Y  -0.0064 Z
    Strength   :     0.0024647590
    D(    4) --> V( 1066) amplitude = -0.2797
    D(    4) --> V( 1080) amplitude =  0.7266
    D(    4) --> V( 1081) amplitude =  0.5829

 Excited state  37: excitation energy (eV) =    1046.2369
 Total energy for state  37:                  -420.39482358 au
    Multiplicity: Singlet
    Trans. Mom.:  0.0018 X   0.0016 Y  -0.0017 Z
    Strength   :     0.0002289224
    D(    4) --> V( 1066) amplitude =  0.9075
    D(    4) --> V( 1067) amplitude = -0.3080
    D(    4) --> V( 1080) amplitude =  0.2178

 Excited state  38: excitation energy (eV) =    1047.1583
 Total energy for state  38:                  -420.36096421 au
    Multiplicity: Singlet
    Trans. Mom.: -0.0003 X  -0.0000 Y   0.0000 Z
    Strength   :     0.0000020393
    D(    4) --> V( 1069) amplitude =  0.9804

 Excited state  39: excitation energy (eV) =    1047.2148
 Total energy for state  39:                  -420.35888781 au
    Multiplicity: Singlet
    Trans. Mom.: -0.0009 X   0.0000 Y   0.0002 Z
    Strength   :     0.0000205317
    D(    4) --> V( 1070) amplitude =  0.9706

 Excited state  40: excitation energy (eV) =    1048.0606
 Total energy for state  40:                  -420.32780350 au
    Multiplicity: Singlet
    Trans. Mom.:  0.0011 X  -0.0009 Y   0.0002 Z
    Strength   :     0.0000570352
    D(    4) --> V( 1072) amplitude =  0.9915

 Excited state  41: excitation energy (eV) =    1048.5352
 Total energy for state  41:                  -420.31036232 au
    Multiplicity: Singlet
    Trans. Mom.: -0.0000 X   0.0000 Y   0.0000 Z
    Strength   :     0.0000000000
    D(    4) --> V( 1071) amplitude =  1.0000

 Excited state  42: excitation energy (eV) =    1048.8114
 Total energy for state  42:                  -420.30021440 au
    Multiplicity: Singlet
    Trans. Mom.: -0.0045 X   0.0053 Y   0.0011 Z
    Strength   :     0.0012679844
    D(    4) --> V( 1074) amplitude = -0.5675
    D(    4) --> V( 1084) amplitude =  0.7757

 Excited state  43: excitation energy (eV) =    1049.2332
 Total energy for state  43:                  -420.28471288 au
    Multiplicity: Singlet
    Trans. Mom.: -0.0030 X   0.0034 Y   0.0003 Z
    Strength   :     0.0005367738
    D(    4) --> V( 1074) amplitude =  0.8203
    D(    4) --> V( 1084) amplitude =  0.5242

 Excited state  44: excitation energy (eV) =    1049.4525
 Total energy for state  44:                  -420.27665134 au
    Multiplicity: Singlet
    Trans. Mom.: -0.0000 X  -0.0000 Y  -0.0000 Z
    Strength   :     0.0000000000
    D(    4) --> V( 1073) amplitude =  1.0000

 Excited state  45: excitation energy (eV) =    1049.5140
 Total energy for state  45:                  -420.27439109 au
    Multiplicity: Singlet
    Trans. Mom.:  0.0015 X  -0.0016 Y   0.0002 Z
    Strength   :     0.0001247183
    D(    4) --> V( 1075) amplitude =  0.9793

 Excited state  46: excitation energy (eV) =    1050.4238
 Total energy for state  46:                  -420.24095945 au
    Multiplicity: Singlet
    Trans. Mom.:  0.0000 X  -0.0000 Y  -0.0000 Z
    Strength   :     0.0000000000
    D(    4) --> V( 1076) amplitude =  1.0000

 Excited state  47: excitation energy (eV) =    1050.4591
 Total energy for state  47:                  -420.23966261 au
    Multiplicity: Singlet
    Trans. Mom.: -0.0000 X   0.0000 Y   0.0000 Z
    Strength   :     0.0000000000
    D(    4) --> V( 1077) amplitude =  1.0000

 Excited state  48: excitation energy (eV) =    1050.8574
 Total energy for state  48:                  -420.22502421 au
    Multiplicity: Singlet
    Trans. Mom.: -0.0007 X   0.0005 Y  -0.0004 Z
    Strength   :     0.0000236800
    D(    4) --> V( 1078) amplitude =  0.9926

 Excited state  49: excitation energy (eV) =    1051.6630
 Total energy for state  49:                  -420.19541955 au
    Multiplicity: Singlet
    Trans. Mom.:  0.0004 X  -0.0004 Y  -0.0000 Z
    Strength   :     0.0000074418
    D(    4) --> V( 1079) amplitude =  0.9984

 Excited state  50: excitation energy (eV) =    1052.5154
 Total energy for state  50:                  -420.16409390 au
    Multiplicity: Singlet
    Trans. Mom.:  0.0008 X  -0.0001 Y   0.0001 Z
    Strength   :     0.0000156694
    D(    4) --> V( 1080) amplitude = -0.6225
    D(    4) --> V( 1081) amplitude =  0.7727

 Excited state  51: excitation energy (eV) =    1053.7321
 Total energy for state  51:                  -420.11938146 au
    Multiplicity: Singlet
    Trans. Mom.: -0.0000 X  -0.0000 Y   0.0000 Z
    Strength   :     0.0000000000
    D(    4) --> V( 1082) amplitude =  1.0000

 Excited state  52: excitation energy (eV) =    1054.4208
 Total energy for state  52:                  -420.09407158 au
    Multiplicity: Singlet
    Trans. Mom.: -0.0000 X   0.0000 Y  -0.0000 Z
    Strength   :     0.0000000000
    D(    4) --> V( 1083) amplitude =  1.0000

 Excited state  53: excitation energy (eV) =    1055.8448
 Total energy for state  53:                  -420.04173982 au
    Multiplicity: Singlet
    Trans. Mom.: -0.0003 X   0.0001 Y  -0.0001 Z
    Strength   :     0.0000034651
    D(    4) --> V( 1085) amplitude =  0.9872

 Excited state  54: excitation energy (eV) =    1056.5594
 Total energy for state  54:                  -420.01547990 au
    Multiplicity: Singlet
    Trans. Mom.:  0.0000 X  -0.0001 Y   0.0003 Z
    Strength   :     0.0000020787
    D(    4) --> V( 1087) amplitude =  0.9953

 Excited state  55: excitation energy (eV) =    1056.9773
 Total energy for state  55:                  -420.00012176 au
    Multiplicity: Singlet
    Trans. Mom.: -0.0000 X   0.0000 Y  -0.0000 Z
    Strength   :     0.0000000000
    D(    4) --> V( 1086) amplitude =  1.0000

 Excited state  56: excitation energy (eV) =    1057.0386
 Total energy for state  56:                  -419.99787003 au
    Multiplicity: Singlet
    Trans. Mom.: -0.0009 X   0.0004 Y  -0.0005 Z
    Strength   :     0.0000331902
    D(    4) --> V( 1088) amplitude =  0.9873

 Excited state  57: excitation energy (eV) =    1058.7626
 Total energy for state  57:                  -419.93451389 au
    Multiplicity: Singlet
    Trans. Mom.: -0.0000 X  -0.0000 Y  -0.0000 Z
    Strength   :     0.0000000000
    D(    4) --> V( 1089) amplitude =  1.0000

 Excited state  58: excitation energy (eV) =    1060.0973
 Total energy for state  58:                  -419.88546426 au
    Multiplicity: Singlet
    Trans. Mom.: -0.0006 X   0.0001 Y  -0.0004 Z
    Strength   :     0.0000133313
    D(    4) --> V( 1091) amplitude =  0.9998

 Excited state  59: excitation energy (eV) =    1060.4235
 Total energy for state  59:                  -419.87347509 au
    Multiplicity: Singlet
    Trans. Mom.:  0.0000 X   0.0000 Y   0.0000 Z
    Strength   :     0.0000000000
    D(    4) --> V( 1090) amplitude =  1.0000

 Excited state  60: excitation energy (eV) =    1064.4768
 Total energy for state  60:                  -419.72451878 au
    Multiplicity: Singlet
    Trans. Mom.:  0.0000 X  -0.0000 Y   0.0000 Z
    Strength   :     0.0000000000
    D(    4) --> V( 1092) amplitude =  1.0000

 Excited state  61: excitation energy (eV) =    1072.7333
 Total energy for state  61:                  -419.42110011 au
    Multiplicity: Singlet
    Trans. Mom.:  0.0067 X   0.0061 Y   0.0106 Z
    Strength   :     0.0051181311
    D(    4) --> V( 1093) amplitude = -0.2903
    D(    4) --> V( 1095) amplitude =  0.9473

 Excited state  62: excitation energy (eV) =    1076.6501
 Total energy for state  62:                  -419.27715802 au
    Multiplicity: Singlet
    Trans. Mom.:  0.0152 X  -0.0164 Y  -0.0016 Z
    Strength   :     0.0132767459
    D(    4) --> V( 1097) amplitude =  0.9956

 Excited state  63: excitation energy (eV) =    1079.0566
 Total energy for state  63:                  -419.18872286 au
    Multiplicity: Singlet
    Trans. Mom.: -0.0002 X  -0.0000 Y   0.0004 Z
    Strength   :     0.0000065444
    D(    4) --> V( 1093) amplitude =  0.9566
    D(    4) --> V( 1095) amplitude =  0.2895

 Excited state  64: excitation energy (eV) =    1080.5478
 Total energy for state  64:                  -419.13392192 au
    Multiplicity: Singlet
    Trans. Mom.: -0.0004 X   0.0003 Y   0.0002 Z
    Strength   :     0.0000091823
    D(    4) --> V( 1096) amplitude =  0.9897

 Excited state  65: excitation energy (eV) =    1080.9623
 Total energy for state  65:                  -419.11868726 au
    Multiplicity: Singlet
    Trans. Mom.: -0.0000 X  -0.0000 Y  -0.0000 Z
    Strength   :     0.0000000000
    D(    4) --> V( 1094) amplitude =  1.0000

 Excited state  66: excitation energy (eV) =    1083.4583
 Total energy for state  66:                  -419.02696250 au
    Multiplicity: Singlet
    Trans. Mom.: -0.0004 X   0.0001 Y  -0.0001 Z
    Strength   :     0.0000054691
    D(    4) --> V( 1098) amplitude =  0.9982

 Excited state  67: excitation energy (eV) =    1084.6020
 Total energy for state  67:                  -418.98493336 au
    Multiplicity: Singlet
    Trans. Mom.:  0.0000 X  -0.0000 Y  -0.0000 Z
    Strength   :     0.0000000000
    D(    4) --> V( 1099) amplitude =  1.0000

 Excited state  68: excitation energy (eV) =    1085.5158
 Total energy for state  68:                  -418.95135276 au
    Multiplicity: Singlet
    Trans. Mom.: -0.0005 X   0.0002 Y  -0.0003 Z
    Strength   :     0.0000093764
    D(    4) --> V( 1100) amplitude =  0.9997

 Excited state  69: excitation energy (eV) =    1087.8140
 Total energy for state  69:                  -418.86689322 au
    Multiplicity: Singlet
    Trans. Mom.:  0.0000 X   0.0000 Y   0.0000 Z
    Strength   :     0.0000000000
    D(    4) --> V( 1101) amplitude =  1.0000

 Excited state  70: excitation energy (eV) =    1088.2593
 Total energy for state  70:                  -418.85052786 au
    Multiplicity: Singlet
    Trans. Mom.: -0.0000 X  -0.0000 Y  -0.0001 Z
    Strength   :     0.0000003436
    D(    4) --> V( 1102) amplitude =  0.9997

 Excited state  71: excitation energy (eV) =    1088.5546
 Total energy for state  71:                  -418.83967770 au
    Multiplicity: Singlet
    Trans. Mom.:  0.0003 X  -0.0002 Y   0.0001 Z
    Strength   :     0.0000029263
    D(    4) --> V( 1103) amplitude =  0.9992

 Excited state  72: excitation energy (eV) =    1097.5144
 Total energy for state  72:                  -418.51041019 au
    Multiplicity: Singlet
    Trans. Mom.: -0.0000 X  -0.0000 Y   0.0000 Z
    Strength   :     0.0000000000
    D(    4) --> V( 1104) amplitude =  1.0000

 Excited state  73: excitation energy (eV) =    1107.6450
 Total energy for state  73:                  -418.13811829 au
    Multiplicity: Singlet
    Trans. Mom.:  0.0071 X   0.0077 Y  -0.0127 Z
    Strength   :     0.0073048415
    D(    4) --> V( 1109) amplitude =  0.4265
    D(    4) --> V( 1111) amplitude =  0.5247
    D(    4) --> V( 1112) amplitude =  0.5966
    D(    4) --> V( 1113) amplitude = -0.3431
    D(    4) --> V( 1114) amplitude =  0.2598

 Excited state  74: excitation energy (eV) =    1110.8695
 Total energy for state  74:                  -418.01961823 au
    Multiplicity: Singlet
    Trans. Mom.:  0.0109 X   0.0090 Y   0.0130 Z
    Strength   :     0.0100656112
    D(    4) --> V( 1109) amplitude = -0.2970
    D(    4) --> V( 1110) amplitude =  0.6772
    D(    4) --> V( 1112) amplitude = -0.2978
    D(    4) --> V( 1113) amplitude = -0.4210
    D(    4) --> V( 1114) amplitude =  0.4292

 Excited state  75: excitation energy (eV) =    1112.5459
 Total energy for state  75:                  -417.95801252 au
    Multiplicity: Singlet
    Trans. Mom.: -0.0000 X  -0.0000 Y   0.0000 Z
    Strength   :     0.0000000000
    D(    4) --> V( 1105) amplitude =  1.0000

 Excited state  76: excitation energy (eV) =    1114.1026
 Total energy for state  76:                  -417.90080683 au
    Multiplicity: Singlet
    Trans. Mom.: -0.0000 X  -0.0000 Y  -0.0000 Z
    Strength   :     0.0000000000
    D(    4) --> V( 1106) amplitude =  1.0000

 Excited state  77: excitation energy (eV) =    1114.6173
 Total energy for state  77:                  -417.88189029 au
    Multiplicity: Singlet
    Trans. Mom.: -0.0000 X  -0.0000 Y  -0.0000 Z
    Strength   :     0.0000000000
    D(    4) --> V( 1107) amplitude =  1.0000

 Excited state  78: excitation energy (eV) =    1115.3482
 Total energy for state  78:                  -417.85503197 au
    Multiplicity: Singlet
    Trans. Mom.: -0.0001 X  -0.0002 Y   0.0009 Z
    Strength   :     0.0000216285
    D(    4) --> V( 1109) amplitude =  0.8342
    D(    4) --> V( 1110) amplitude =  0.3266
    D(    4) --> V( 1111) amplitude = -0.3539
    D(    4) --> V( 1112) amplitude = -0.2609

 Excited state  79: excitation energy (eV) =    1115.5023
 Total energy for state  79:                  -417.84936761 au
    Multiplicity: Singlet
    Trans. Mom.: -0.0000 X  -0.0000 Y   0.0000 Z
    Strength   :     0.0000000000
    D(    4) --> V( 1108) amplitude =  1.0000

 Excited state  80: excitation energy (eV) =    1115.9682
 Total energy for state  80:                  -417.83224726 au
    Multiplicity: Singlet
    Trans. Mom.: -0.0014 X  -0.0003 Y  -0.0015 Z
    Strength   :     0.0001168590
    D(    4) --> V( 1110) amplitude =  0.3849
    D(    4) --> V( 1111) amplitude = -0.5600
    D(    4) --> V( 1112) amplitude =  0.6975

 Excited state  81: excitation energy (eV) =    1116.1472
 Total energy for state  81:                  -417.82566923 au
    Multiplicity: Singlet
    Trans. Mom.: -0.0016 X  -0.0014 Y  -0.0011 Z
    Strength   :     0.0001598641
    D(    4) --> V( 1110) amplitude =  0.5207
    D(    4) --> V( 1111) amplitude =  0.5310
    D(    4) --> V( 1113) amplitude =  0.5824
    D(    4) --> V( 1114) amplitude = -0.3267

 Excited state  82: excitation energy (eV) =    1117.2284
 Total energy for state  82:                  -417.78593565 au
    Multiplicity: Singlet
    Trans. Mom.:  0.0010 X   0.0004 Y   0.0010 Z
    Strength   :     0.0000551416
    D(    4) --> V( 1113) amplitude =  0.5906
    D(    4) --> V( 1114) amplitude =  0.7968

 ---------------------------------------------------
  SETman timing summary (seconds)
  CPU time             71537.62s
  System time              0.00s
  Wall time            17936.96s
================================================================================
                             Excited State Analysis
================================================================================

  Ground State (Reference) :
  -------------------------
    NOs
      Occupation of frontier NOs:
         0.0000   0.0000   2.0000   2.0000
      Number of electrons: 60.000000
      Number of unpaired electrons: n_u =  0.00000, n_u,nl =  0.00000
    
    Mulliken Population Analysis (State DM)
    Atom      Charge (e)
    --------------------
     1 O       -0.613435
     2 H        0.284059
     3 H        0.322016
     4 O       -0.557505
     5 H        0.272836
     6 H        0.283668
     7 O       -0.615993
     8 H        0.316744
     9 H        0.300250
    10 O       -0.657708
    11 H        0.327407
    12 H        0.306313
    13 O       -0.644359
    14 H        0.367792
    15 H        0.273634
    16 O       -0.725299
    17 H        0.392326
    18 H        0.367254
    --------------------
    Sum:        0.000000
    
    Multipole moment analysis of the density matrix
      Molecular charge:                      0.000000
      Number of electrons:                   60.000000
        Center of electronic charge [Ang]: [  0.000585,  -0.003937,  -0.004064]
      Total nuclear charge:                  60.000000
        Center of nuclear charge [Ang]:    [ -0.007335,  -0.016790,  -0.016173]
      Dipole moment [D]:                     5.577463
        Cartesian components [D]:          [ -2.282521,  -3.704063,  -3.489714]
      RMS size of the density [Ang]:        10.751359
        Cartesian components [Ang]:        [ 10.551524,   1.736707,   1.113955]
    

  ----------------------------------------------------------------------------
                  Analysis of Unrelaxed Density Matrices
  ----------------------------------------------------------------------------

  Singlet 1 :
  -------------------------
    NOs
      Occupation of frontier NOs:
         0.0000   1.0000   1.0000   2.0000
      Number of electrons: 60.000000
      Number of unpaired electrons: n_u =  2.00000, n_u,nl =  2.00000
      NO participation ratio (PR_NO):  2.000000
    
    NDOs
      Leading detachment eigenvalues:
        -1.0000  -0.0000
      Leading attachment eigenvalues:
         1.0000   0.0000
      Number of detached / attached electrons: p_D =  1.0000, p_A =  1.0000
      Number of involved orbitals: PR_D =  1.000000, PR_A =  1.000000
    
    Mulliken Population Analysis (State/Difference DM)
    Atom      Charge (e)              h+              e-           Del q
    --------------------------------------------------------------------
     1 O       -0.575176        0.994428       -0.956169        0.038260
     2 H        0.280629        0.002779       -0.006209       -0.003430
     3 H        0.319382        0.002791       -0.005426       -0.002635
     4 O       -0.557505        0.000000       -0.000000        0.000000
     5 H        0.272836        0.000000       -0.000000        0.000000
     6 H        0.283668        0.000000       -0.000000        0.000000
     7 O       -0.615993        0.000000       -0.000000       -0.000000
     8 H        0.316744        0.000000       -0.000000       -0.000000
     9 H        0.300250        0.000000       -0.000000       -0.000000
    10 O       -0.662460       -0.000000       -0.004751       -0.004751
    11 H        0.326796       -0.000000       -0.000611       -0.000611
    12 H        0.306241       -0.000000       -0.000072       -0.000072
    13 O       -0.667929       -0.000000       -0.023570       -0.023570
    14 H        0.366794        0.000001       -0.000998       -0.000998
    15 H        0.273218       -0.000000       -0.000416       -0.000416
    16 O       -0.726808        0.000001       -0.001510       -0.001509
    17 H        0.392144       -0.000000       -0.000182       -0.000182
    18 H        0.367168       -0.000000       -0.000086       -0.000086
    --------------------------------------------------------------------
    Sum:       -0.000000        1.000000       -1.000000       -0.000000
    
    Multipole moment analysis of the density matrix
      Molecular charge:                      -0.000000
      Number of electrons:                   60.000000
        Center of electronic charge [Ang]: [ -0.000810,  -0.004627,  -0.005099]
      Total nuclear charge:                  60.000000
        Center of nuclear charge [Ang]:    [ -0.007335,  -0.016790,  -0.016173]
      Dipole moment [D]:                     5.099892
        Cartesian components [D]:          [ -1.880461,  -3.505368,  -3.191419]
      RMS size of the density [Ang]:        10.750602
        Cartesian components [Ang]:        [ 10.550544,   1.737756,   1.114302]
    
    Exciton analysis of the difference density matrix
      <r_h> [Ang]:                  [  9.001812,  -0.108453,   1.026581]
      <r_e> [Ang]:                  [  8.918106,  -0.149820,   0.964478]
      |<r_e - r_h>| [Ang]:            0.112138
      Hole size [Ang]:                0.122766
        Cartesian components [Ang]: [  0.070881,   0.070881,   0.070876]
      Electron size [Ang]:            0.807646
        Cartesian components [Ang]: [  0.513143,   0.461929,   0.419046]

  Singlet 2 :
  -------------------------
    NOs
      Occupation of frontier NOs:
         0.0000   1.0000   1.0000   2.0000
      Number of electrons: 60.000000
      Number of unpaired electrons: n_u =  2.00000, n_u,nl =  2.00000
      NO participation ratio (PR_NO):  2.000000
    
    NDOs
      Leading detachment eigenvalues:
        -1.0000  -0.0000
      Leading attachment eigenvalues:
         1.0000   0.0000
      Number of detached / attached electrons: p_D =  1.0000, p_A =  1.0000
      Number of involved orbitals: PR_D =  1.000000, PR_A =  1.000000
    
    Mulliken Population Analysis (State/Difference DM)
    Atom      Charge (e)              h+              e-           Del q
    --------------------------------------------------------------------
     1 O       -0.556534        0.994428       -0.937527        0.056901
     2 H        0.262463        0.002779       -0.024375       -0.021596
     3 H        0.295614        0.002791       -0.029193       -0.026402
     4 O       -0.557505        0.000000       -0.000000        0.000000
     5 H        0.272836        0.000000       -0.000000        0.000000
     6 H        0.283668        0.000000       -0.000000       -0.000000
     7 O       -0.615993        0.000000       -0.000000       -0.000000
     8 H        0.316744        0.000000       -0.000000       -0.000000
     9 H        0.300250        0.000000       -0.000000       -0.000000
    10 O       -0.658220       -0.000000       -0.000511       -0.000511
    11 H        0.327221       -0.000000       -0.000186       -0.000186
    12 H        0.306219       -0.000000       -0.000094       -0.000094
    13 O       -0.650541       -0.000000       -0.006182       -0.006182
    14 H        0.366876        0.000001       -0.000916       -0.000915
    15 H        0.273380       -0.000000       -0.000254       -0.000254
    16 O       -0.725835        0.000001       -0.000538       -0.000537
    17 H        0.392201       -0.000000       -0.000125       -0.000125
    18 H        0.367156       -0.000000       -0.000098       -0.000098
    --------------------------------------------------------------------
    Sum:       -0.000000        1.000000       -1.000000       -0.000000
    
    Multipole moment analysis of the density matrix
      Molecular charge:                      -0.000000
      Number of electrons:                   60.000000
        Center of electronic charge [Ang]: [  0.000016,  -0.004244,  -0.004241]
      Total nuclear charge:                  60.000000
        Center of nuclear charge [Ang]:    [ -0.007335,  -0.016790,  -0.016173]
      Dipole moment [D]:                     5.420990
        Cartesian components [D]:          [ -2.118388,  -3.615743,  -3.438890]
      RMS size of the density [Ang]:        10.751197
        Cartesian components [Ang]:        [ 10.551166,   1.737331,   1.114815]
    
    Exciton analysis of the difference density matrix
      <r_h> [Ang]:                  [  9.001812,  -0.108453,   1.026581]
      <r_e> [Ang]:                  [  8.967641,  -0.126841,   1.016000]
      |<r_e - r_h>| [Ang]:            0.040222
      Hole size [Ang]:                0.122766
        Cartesian components [Ang]: [  0.070881,   0.070881,   0.070876]
      Electron size [Ang]:            0.661559
        Cartesian components [Ang]: [  0.406390,   0.361601,   0.376500]

  Singlet 3 :
  -------------------------
    NOs
      Occupation of frontier NOs:
         0.0000   1.0000   1.0000   2.0000
      Number of electrons: 60.000000
      Number of unpaired electrons: n_u =  2.00000, n_u,nl =  2.00000
      NO participation ratio (PR_NO):  2.000000
    
    NDOs
      Leading detachment eigenvalues:
        -1.0000  -0.0000
      Leading attachment eigenvalues:
         1.0000   0.0000
      Number of detached / attached electrons: p_D =  1.0000, p_A =  1.0000
      Number of involved orbitals: PR_D =  1.000000, PR_A =  1.000000
    
    Mulliken Population Analysis (State/Difference DM)
    Atom      Charge (e)              h+              e-           Del q
    --------------------------------------------------------------------
     1 O       -0.133518        0.994428       -0.514511        0.479917
     2 H        0.126874        0.002779       -0.159965       -0.157186
     3 H        0.140706        0.002791       -0.184101       -0.181310
     4 O       -0.557505        0.000000       -0.000000       -0.000000
     5 H        0.272836        0.000000       -0.000000       -0.000000
     6 H        0.283668        0.000000       -0.000000       -0.000000
     7 O       -0.615993        0.000000       -0.000000        0.000000
     8 H        0.316744        0.000000       -0.000000        0.000000
     9 H        0.300250        0.000000       -0.000000        0.000000
    10 O       -0.746260       -0.000000       -0.088552       -0.088552
    11 H        0.325325       -0.000000       -0.002081       -0.002081
    12 H        0.303899       -0.000000       -0.002414       -0.002414
    13 O       -0.676281       -0.000000       -0.031922       -0.031922
    14 H        0.366321        0.000001       -0.001471       -0.001470
    15 H        0.273227       -0.000000       -0.000407       -0.000407
    16 O       -0.738387        0.000001       -0.013090       -0.013089
    17 H        0.391715       -0.000000       -0.000612       -0.000612
    18 H        0.366380       -0.000000       -0.000875       -0.000875
    --------------------------------------------------------------------
    Sum:        0.000000        1.000000       -1.000000        0.000000
    
    Multipole moment analysis of the density matrix
      Molecular charge:                      0.000000
      Number of electrons:                   60.000000
        Center of electronic charge [Ang]: [ -0.004560,  -0.001571,  -0.010916]
      Total nuclear charge:                  60.000000
        Center of nuclear charge [Ang]:    [ -0.007335,  -0.016790,  -0.016173]
      Dipole moment [D]:                     4.708643
        Cartesian components [D]:          [ -0.799611,  -4.385909,  -1.515172]
      RMS size of the density [Ang]:        10.748266
        Cartesian components [Ang]:        [ 10.547626,   1.741484,   1.113572]
    
    Exciton analysis of the difference density matrix
      <r_h> [Ang]:                  [  9.001812,  -0.108453,   1.026581]
      <r_e> [Ang]:                  [  8.693079,   0.033504,   0.615493]
      |<r_e - r_h>| [Ang]:            0.533350
      Hole size [Ang]:                0.122766
        Cartesian components [Ang]: [  0.070881,   0.070881,   0.070876]
      Electron size [Ang]:            1.476735
        Cartesian components [Ang]: [  0.730784,   1.005803,   0.796909]

  Singlet 4 :
  -------------------------
    NOs
      Occupation of frontier NOs:
         0.0000   1.0000   1.0000   2.0000
      Number of electrons: 60.000000
      Number of unpaired electrons: n_u =  2.00000, n_u,nl =  2.00000
      NO participation ratio (PR_NO):  2.000000
    
    NDOs
      Leading detachment eigenvalues:
        -1.0000  -0.0000
      Leading attachment eigenvalues:
         1.0000   0.0000
      Number of detached / attached electrons: p_D =  1.0000, p_A =  1.0000
      Number of involved orbitals: PR_D =  1.000000, PR_A =  1.000000
    
    Mulliken Population Analysis (State/Difference DM)
    Atom      Charge (e)              h+              e-           Del q
    --------------------------------------------------------------------
     1 O        0.363919        0.994428       -0.017073        0.977355
     2 H        0.285067        0.002779       -0.001771        0.001008
     3 H        0.319859        0.002791       -0.004949       -0.002158
     4 O       -0.557505        0.000000       -0.000000        0.000000
     5 H        0.272836        0.000000       -0.000000        0.000000
     6 H        0.283668        0.000000       -0.000000        0.000000
     7 O       -0.615993        0.000000       -0.000000        0.000000
     8 H        0.316744        0.000000       -0.000000        0.000000
     9 H        0.300250        0.000000       -0.000000        0.000000
    10 O       -0.662874       -0.000000       -0.005166       -0.005166
    11 H        0.327204       -0.000000       -0.000203       -0.000203
    12 H        0.305874       -0.000000       -0.000439       -0.000439
    13 O       -1.555918       -0.000000       -0.911559       -0.911559
    14 H        0.351522        0.000001       -0.016270       -0.016269
    15 H        0.253363       -0.000000       -0.020271       -0.020271
    16 O       -0.745090        0.000001       -0.019793       -0.019791
    17 H        0.390905       -0.000000       -0.001422       -0.001422
    18 H        0.366169       -0.000000       -0.001085       -0.001085
    --------------------------------------------------------------------
    Sum:        0.000000        1.000000       -1.000000        0.000000
    
    Multipole moment analysis of the density matrix
      Molecular charge:                      0.000000
      Number of electrons:                   60.000000
        Center of electronic charge [Ang]: [ -0.040144,  -0.034391,  -0.016254]
      Total nuclear charge:                  60.000000
        Center of nuclear charge [Ang]:    [ -0.007335,  -0.016790,  -0.016173]
      Dipole moment [D]:                     10.730012
        Cartesian components [D]:          [  9.455204,   5.072646,   0.023174]
      RMS size of the density [Ang]:        10.724546
        Cartesian components [Ang]:        [ 10.521581,   1.756412,   1.107806]
    
    Exciton analysis of the difference density matrix
      <r_h> [Ang]:                  [  9.001812,  -0.108453,   1.026581]
      <r_e> [Ang]:                  [  6.558084,  -1.935714,   0.295218]
      |<r_e - r_h>| [Ang]:            3.137767
      Hole size [Ang]:                0.122766
        Cartesian components [Ang]: [  0.070881,   0.070881,   0.070876]
      Electron size [Ang]:            0.950028
        Cartesian components [Ang]: [  0.515769,   0.685317,   0.408506]

  Singlet 5 :
  -------------------------
    NOs
      Occupation of frontier NOs:
         0.0000   1.0000   1.0000   2.0000
      Number of electrons: 60.000000
      Number of unpaired electrons: n_u =  2.00000, n_u,nl =  2.00000
      NO participation ratio (PR_NO):  2.000000
    
    NDOs
      Leading detachment eigenvalues:
        -1.0000  -0.0000
      Leading attachment eigenvalues:
         1.0000   0.0000
      Number of detached / attached electrons: p_D =  1.0000, p_A =  1.0000
      Number of involved orbitals: PR_D =  1.000000, PR_A =  1.000000
    
    Mulliken Population Analysis (State/Difference DM)
    Atom      Charge (e)              h+              e-           Del q
    --------------------------------------------------------------------
     1 O        0.321096        0.994428       -0.059896        0.934532
     2 H        0.271754        0.002779       -0.015084       -0.012305
     3 H        0.303137        0.002791       -0.021670       -0.018879
     4 O       -0.557505        0.000000       -0.000000       -0.000000
     5 H        0.272836        0.000000       -0.000000       -0.000000
     6 H        0.283668        0.000000       -0.000000       -0.000000
     7 O       -0.615993        0.000000       -0.000000       -0.000000
     8 H        0.316744        0.000000       -0.000000       -0.000000
     9 H        0.300250        0.000000       -0.000000       -0.000000
    10 O       -1.435076       -0.000000       -0.777368       -0.777368
    11 H        0.303785       -0.000000       -0.023622       -0.023622
    12 H        0.285124       -0.000000       -0.021189       -0.021189
    13 O       -0.681445       -0.000000       -0.037086       -0.037086
    14 H        0.364782        0.000001       -0.003010       -0.003009
    15 H        0.272737       -0.000000       -0.000897       -0.000897
    16 O       -0.757709        0.000001       -0.032411       -0.032410
    17 H        0.388679       -0.000000       -0.003647       -0.003647
    18 H        0.363135       -0.000000       -0.004119       -0.004119
    --------------------------------------------------------------------
    Sum:       -0.000000        1.000000       -1.000000       -0.000000
    
    Multipole moment analysis of the density matrix
      Molecular charge:                      -0.000000
      Number of electrons:                   60.000000
        Center of electronic charge [Ang]: [ -0.016033,   0.032477,  -0.040169]
      Total nuclear charge:                  60.000000
        Center of nuclear charge [Ang]:    [ -0.007335,  -0.016790,  -0.016173]
      Dipole moment [D]:                     15.990500
        Cartesian components [D]:          [  2.506592, -14.198273,   6.915356]
      RMS size of the density [Ang]:        10.743704
        Cartesian components [Ang]:        [ 10.538438,   1.764500,   1.120281]
    
    Exciton analysis of the difference density matrix
      <r_h> [Ang]:                  [  9.001812,  -0.108453,   1.026581]
      <r_e> [Ang]:                  [  8.004746,   2.076382,  -1.139695]
      |<r_e - r_h>| [Ang]:            3.234254
      Hole size [Ang]:                0.122766
        Cartesian components [Ang]: [  0.070881,   0.070881,   0.070876]
      Electron size [Ang]:            1.651666
        Cartesian components [Ang]: [  0.646462,   1.267397,   0.838924]

  Singlet 6 :
  -------------------------
    NOs
      Occupation of frontier NOs:
         0.0000   1.0000   1.0000   2.0000
      Number of electrons: 60.000000
      Number of unpaired electrons: n_u =  2.00000, n_u,nl =  2.00000
      NO participation ratio (PR_NO):  2.000000
    
    NDOs
      Leading detachment eigenvalues:
        -1.0000  -0.0000
      Leading attachment eigenvalues:
         1.0000   0.0000
      Number of detached / attached electrons: p_D =  1.0000, p_A =  1.0000
      Number of involved orbitals: PR_D =  1.000000, PR_A =  1.000000
    
    Mulliken Population Analysis (State/Difference DM)
    Atom      Charge (e)              h+              e-           Del q
    --------------------------------------------------------------------
     1 O        0.345765        0.994428       -0.035227        0.959201
     2 H        0.282884        0.002779       -0.003955       -0.001176
     3 H        0.322332        0.002791       -0.002476        0.000315
     4 O       -0.557505        0.000000       -0.000000        0.000000
     5 H        0.272836        0.000000       -0.000000        0.000000
     6 H        0.283668        0.000000       -0.000000       -0.000000
     7 O       -0.615993        0.000000       -0.000000        0.000000
     8 H        0.316744        0.000000       -0.000000        0.000000
     9 H        0.300250        0.000000       -0.000000        0.000000
    10 O       -0.663995       -0.000000       -0.006287       -0.006287
    11 H        0.327079       -0.000000       -0.000328       -0.000328
    12 H        0.306074       -0.000000       -0.000239       -0.000239
    13 O       -1.173223       -0.000000       -0.528864       -0.528864
    14 H        0.174022        0.000001       -0.193770       -0.193769
    15 H        0.084836       -0.000000       -0.188797       -0.188797
    16 O       -0.757706        0.000001       -0.032409       -0.032408
    17 H        0.388029       -0.000000       -0.004297       -0.004297
    18 H        0.363903       -0.000000       -0.003351       -0.003351
    --------------------------------------------------------------------
    Sum:        0.000000        1.000000       -1.000000        0.000000
    
    Multipole moment analysis of the density matrix
      Molecular charge:                      0.000000
      Number of electrons:                   60.000000
        Center of electronic charge [Ang]: [ -0.039660,  -0.031305,  -0.018919]
      Total nuclear charge:                  60.000000
        Center of nuclear charge [Ang]:    [ -0.007335,  -0.016790,  -0.016173]
      Dipole moment [D]:                     10.242386
        Cartesian components [D]:          [  9.315719,   4.183036,   0.791241]
      RMS size of the density [Ang]:        10.724672
        Cartesian components [Ang]:        [ 10.521959,   1.754688,   1.108166]
    
    Exciton analysis of the difference density matrix
      <r_h> [Ang]:                  [  9.001812,  -0.108453,   1.026581]
      <r_e> [Ang]:                  [  6.587124,  -1.750502,   0.135311]
      |<r_e - r_h>| [Ang]:            3.053098
      Hole size [Ang]:                0.122766
        Cartesian components [Ang]: [  0.070881,   0.070881,   0.070876]
      Electron size [Ang]:            1.193908
        Cartesian components [Ang]: [  0.599214,   0.881561,   0.537783]

  Singlet 7 :
  -------------------------
    NOs
      Occupation of frontier NOs:
         0.0000   1.0000   1.0000   2.0000
      Number of electrons: 60.000000
      Number of unpaired electrons: n_u =  2.00000, n_u,nl =  2.00000
      NO participation ratio (PR_NO):  2.000000
    
    NDOs
      Leading detachment eigenvalues:
        -1.0000  -0.0000
      Leading attachment eigenvalues:
         1.0000   0.0000
      Number of detached / attached electrons: p_D =  1.0000, p_A =  1.0000
      Number of involved orbitals: PR_D =  1.000000, PR_A =  1.000000
    
    Mulliken Population Analysis (State/Difference DM)
    Atom      Charge (e)              h+              e-           Del q
    --------------------------------------------------------------------
     1 O       -0.484218        0.994428       -0.865211        0.129217
     2 H        0.239854        0.002779       -0.046984       -0.044205
     3 H        0.276938        0.002791       -0.047869       -0.045078
     4 O       -0.557505        0.000000       -0.000000        0.000000
     5 H        0.272836        0.000000       -0.000000        0.000000
     6 H        0.283668        0.000000       -0.000000        0.000000
     7 O       -0.615993        0.000000       -0.000000       -0.000000
     8 H        0.316744        0.000000       -0.000000       -0.000000
     9 H        0.300250        0.000000       -0.000000       -0.000000
    10 O       -0.658127       -0.000000       -0.000419       -0.000419
    11 H        0.327297       -0.000000       -0.000110       -0.000110
    12 H        0.306302       -0.000000       -0.000012       -0.000012
    13 O       -0.663842       -0.000000       -0.019482       -0.019482
    14 H        0.361042        0.000001       -0.006750       -0.006749
    15 H        0.267488       -0.000000       -0.006145       -0.006145
    16 O       -0.731772        0.000001       -0.006474       -0.006473
    17 H        0.392096       -0.000000       -0.000230       -0.000230
    18 H        0.366940       -0.000000       -0.000314       -0.000314
    --------------------------------------------------------------------
    Sum:        0.000000        1.000000       -1.000000        0.000000
    
    Multipole moment analysis of the density matrix
      Molecular charge:                      0.000000
      Number of electrons:                   60.000000
        Center of electronic charge [Ang]: [ -0.001941,  -0.005500,  -0.005996]
      Total nuclear charge:                  60.000000
        Center of nuclear charge [Ang]:    [ -0.007335,  -0.016790,  -0.016173]
      Dipole moment [D]:                     4.648041
        Cartesian components [D]:          [ -1.554454,  -3.253579,  -2.932947]
      RMS size of the density [Ang]:        10.749694
        Cartesian components [Ang]:        [ 10.549677,   1.738052,   1.113282]
    
    Exciton analysis of the difference density matrix
      <r_h> [Ang]:                  [  9.001812,  -0.108453,   1.026581]
      <r_e> [Ang]:                  [  8.850233,  -0.202241,   0.910666]
      |<r_e - r_h>| [Ang]:            0.212624
      Hole size [Ang]:                0.122766
        Cartesian components [Ang]: [  0.070881,   0.070881,   0.070876]
      Electron size [Ang]:            0.877822
        Cartesian components [Ang]: [  0.610351,   0.507151,   0.375288]

  Singlet 8 :
  -------------------------
    NOs
      Occupation of frontier NOs:
         0.0000   1.0000   1.0000   2.0000
      Number of electrons: 60.000000
      Number of unpaired electrons: n_u =  2.00000, n_u,nl =  2.00000
      NO participation ratio (PR_NO):  2.000000
    
    NDOs
      Leading detachment eigenvalues:
        -1.0000  -0.0000
      Leading attachment eigenvalues:
         1.0000   0.0000
      Number of detached / attached electrons: p_D =  1.0000, p_A =  1.0000
      Number of involved orbitals: PR_D =  1.000000, PR_A =  1.000000
    
    Mulliken Population Analysis (State/Difference DM)
    Atom      Charge (e)              h+              e-           Del q
    --------------------------------------------------------------------
     1 O        0.353804        0.994428       -0.027189        0.967239
     2 H        0.285169        0.002779       -0.001670        0.001109
     3 H        0.321729        0.002791       -0.003078       -0.000287
     4 O       -0.557505        0.000000       -0.000000        0.000000
     5 H        0.272836        0.000000       -0.000000        0.000000
     6 H        0.283668        0.000000       -0.000000        0.000000
     7 O       -0.615993        0.000000       -0.000000       -0.000000
     8 H        0.316744       -0.000000       -0.000000       -0.000000
     9 H        0.300250       -0.000000       -0.000000       -0.000000
    10 O       -0.684964       -0.000000       -0.027256       -0.027256
    11 H        0.318529       -0.000000       -0.008878       -0.008878
    12 H        0.285858       -0.000000       -0.020455       -0.020455
    13 O       -0.755164       -0.000000       -0.110805       -0.110805
    14 H        0.341377        0.000001       -0.026416       -0.026415
    15 H        0.268746       -0.000000       -0.004888       -0.004888
    16 O       -1.426195        0.000001       -0.700898       -0.700896
    17 H        0.360727       -0.000000       -0.031599       -0.031599
    18 H        0.330386       -0.000000       -0.036869       -0.036869
    --------------------------------------------------------------------
    Sum:        0.000000        1.000000       -1.000000        0.000000
    
    Multipole moment analysis of the density matrix
      Molecular charge:                      0.000000
      Number of electrons:                   60.000000
        Center of electronic charge [Ang]: [ -0.042147,   0.004280,  -0.030519]
      Total nuclear charge:                  60.000000
        Center of nuclear charge [Ang]:    [ -0.007335,  -0.016790,  -0.016173]
      Dipole moment [D]:                     12.434509
        Cartesian components [D]:          [ 10.032620,  -6.072077,   4.134421]
      RMS size of the density [Ang]:        10.721691
        Cartesian components [Ang]:        [ 10.520587,   1.743090,   1.110648]
    
    Exciton analysis of the difference density matrix
      <r_h> [Ang]:                  [  9.001812,  -0.108453,   1.026581]
      <r_e> [Ang]:                  [  6.437870,   0.384554,  -0.560720]
      |<r_e - r_h>| [Ang]:            3.055550
      Hole size [Ang]:                0.122766
        Cartesian components [Ang]: [  0.070881,   0.070881,   0.070876]
      Electron size [Ang]:            1.463800
        Cartesian components [Ang]: [  0.763610,   1.096174,   0.598342]

  Singlet 9 :
  -------------------------
    NOs
      Occupation of frontier NOs:
         0.0000   1.0000   1.0000   2.0000
      Number of electrons: 60.000000
      Number of unpaired electrons: n_u =  2.00000, n_u,nl =  2.00000
      NO participation ratio (PR_NO):  2.000000
    
    NDOs
      Leading detachment eigenvalues:
        -1.0000  -0.0000
      Leading attachment eigenvalues:
         1.0000   0.0000
      Number of detached / attached electrons: p_D =  1.0000, p_A =  1.0000
      Number of involved orbitals: PR_D =  1.000000, PR_A =  1.000000
    
    Mulliken Population Analysis (State/Difference DM)
    Atom      Charge (e)              h+              e-           Del q
    --------------------------------------------------------------------
     1 O        0.366138        0.994428       -0.014855        0.979573
     2 H        0.285295        0.002779       -0.001543        0.001236
     3 H        0.323761        0.002791       -0.001046        0.001745
     4 O       -0.557505        0.000000       -0.000000        0.000000
     5 H        0.272836        0.000000       -0.000000        0.000000
     6 H        0.283668        0.000000       -0.000000        0.000000
     7 O       -0.615993        0.000000       -0.000000       -0.000000
     8 H        0.316744        0.000000        0.000000        0.000000
     9 H        0.300250        0.000000        0.000000        0.000000
    10 O       -0.846573       -0.000000       -0.188864       -0.188864
    11 H        0.231341       -0.000000       -0.096065       -0.096065
    12 H        0.187321       -0.000000       -0.118992       -0.118992
    13 O       -0.653066       -0.000000       -0.008707       -0.008707
    14 H        0.358064        0.000001       -0.009729       -0.009728
    15 H        0.271583       -0.000000       -0.002051       -0.002051
    16 O       -1.217802        0.000001       -0.492505       -0.492504
    17 H        0.344005       -0.000000       -0.048322       -0.048322
    18 H        0.349933       -0.000000       -0.017321       -0.017321
    --------------------------------------------------------------------
    Sum:        0.000000        1.000000       -1.000000        0.000000
    
    Multipole moment analysis of the density matrix
      Molecular charge:                      0.000000
      Number of electrons:                   60.000000
        Center of electronic charge [Ang]: [ -0.032367,   0.020245,  -0.036788]
      Total nuclear charge:                  60.000000
        Center of nuclear charge [Ang]:    [ -0.007335,  -0.016790,  -0.016173]
      Dipole moment [D]:                     14.186444
        Cartesian components [D]:          [  7.214076, -10.673177,   5.941010]
      RMS size of the density [Ang]:        10.730019
        Cartesian components [Ang]:        [ 10.527437,   1.750426,   1.114623]
    
    Exciton analysis of the difference density matrix
      <r_h> [Ang]:                  [  9.001812,  -0.108453,   1.026581]
      <r_e> [Ang]:                  [  7.024675,   1.342477,  -0.936842]
      |<r_e - r_h>| [Ang]:            3.141545
      Hole size [Ang]:                0.122766
        Cartesian components [Ang]: [  0.070881,   0.070881,   0.070876]
      Electron size [Ang]:            1.658145
        Cartesian components [Ang]: [  1.135848,   1.052871,   0.592248]

  Singlet 10 :
  -------------------------
    NOs
      Occupation of frontier NOs:
         0.0000   1.0000   1.0000   2.0000
      Number of electrons: 60.000000
      Number of unpaired electrons: n_u =  2.00000, n_u,nl =  2.00000
      NO participation ratio (PR_NO):  2.000000
    
    NDOs
      Leading detachment eigenvalues:
        -1.0000  -0.0000
      Leading attachment eigenvalues:
         1.0000   0.0000
      Number of detached / attached electrons: p_D =  1.0000, p_A =  1.0000
      Number of involved orbitals: PR_D =  1.000000, PR_A =  1.000000
    
    Mulliken Population Analysis (State/Difference DM)
    Atom      Charge (e)              h+              e-           Del q
    --------------------------------------------------------------------
     1 O        0.380993        0.994428       -0.000000        0.994428
     2 H        0.286838        0.002779       -0.000000        0.002779
     3 H        0.324807        0.002791       -0.000000        0.002791
     4 O       -1.137281        0.000000       -0.579776       -0.579776
     5 H       -0.025471        0.000000       -0.298307       -0.298307
     6 H        0.161806        0.000000       -0.121862       -0.121862
     7 O       -0.616022        0.000000       -0.000029       -0.000029
     8 H        0.316730        0.000000       -0.000014       -0.000014
     9 H        0.300238        0.000000       -0.000012       -0.000012
    10 O       -0.657708       -0.000000       -0.000000       -0.000000
    11 H        0.327407       -0.000000       -0.000000       -0.000000
    12 H        0.306313       -0.000000       -0.000000       -0.000000
    13 O       -0.644359       -0.000000       -0.000000       -0.000000
    14 H        0.367793        0.000001       -0.000000        0.000001
    15 H        0.273634       -0.000000       -0.000000       -0.000000
    16 O       -0.725297        0.000001       -0.000000        0.000001
    17 H        0.392326       -0.000000        0.000000       -0.000000
    18 H        0.367254       -0.000000       -0.000000       -0.000000
    --------------------------------------------------------------------
    Sum:       -0.000000        1.000000       -1.000000       -0.000000
    
    Multipole moment analysis of the density matrix
      Molecular charge:                      -0.000000
      Number of electrons:                   60.000000
        Center of electronic charge [Ang]: [ -0.406233,  -0.040980,  -0.031303]
      Total nuclear charge:                  60.000000
        Center of nuclear charge [Ang]:    [ -0.007335,  -0.016790,  -0.016173]
      Dipole moment [D]:                     115.253121
        Cartesian components [D]:          [114.959432,   6.971386,   4.360136]
      RMS size of the density [Ang]:        10.868180
        Cartesian components [Ang]:        [ 10.666715,   1.763034,   1.109159]
    
    Exciton analysis of the difference density matrix
      <r_h> [Ang]:                  [  9.001812,  -0.108453,   1.026581]
      <r_e> [Ang]:                  [-15.407299,  -2.331021,  -0.607713]
      |<r_e - r_h>| [Ang]:           24.564516
      Hole size [Ang]:                0.122766
        Cartesian components [Ang]: [  0.070881,   0.070881,   0.070876]
      Electron size [Ang]:            0.722334
        Cartesian components [Ang]: [  0.450621,   0.459476,   0.328006]

  Singlet 11 :
  -------------------------
    NOs
      Occupation of frontier NOs:
         0.0000   1.0000   1.0000   2.0000
      Number of electrons: 60.000000
      Number of unpaired electrons: n_u =  2.00000, n_u,nl =  2.00000
      NO participation ratio (PR_NO):  2.000000
    
    NDOs
      Leading detachment eigenvalues:
        -1.0000  -0.0000
      Leading attachment eigenvalues:
         1.0000   0.0000
      Number of detached / attached electrons: p_D =  1.0000, p_A =  1.0000
      Number of involved orbitals: PR_D =  1.000000, PR_A =  1.000000
    
    Mulliken Population Analysis (State/Difference DM)
    Atom      Charge (e)              h+              e-           Del q
    --------------------------------------------------------------------
     1 O       -0.357747        0.994428       -0.738740        0.255688
     2 H        0.205453        0.002779       -0.081385       -0.078606
     3 H        0.222817        0.002791       -0.101990       -0.099199
     4 O       -0.557505        0.000000       -0.000000       -0.000000
     5 H        0.272836        0.000000       -0.000000       -0.000000
     6 H        0.283668        0.000000       -0.000000        0.000000
     7 O       -0.615993        0.000000       -0.000000       -0.000000
     8 H        0.316744        0.000000       -0.000000       -0.000000
     9 H        0.300250        0.000000       -0.000000       -0.000000
    10 O       -0.659646       -0.000000       -0.001938       -0.001938
    11 H        0.327050       -0.000000       -0.000356       -0.000356
    12 H        0.306254       -0.000000       -0.000059       -0.000059
    13 O       -0.661078       -0.000000       -0.016718       -0.016718
    14 H        0.366925        0.000001       -0.000868       -0.000867
    15 H        0.272880       -0.000000       -0.000753       -0.000754
    16 O       -0.766029        0.000001       -0.040731       -0.040730
    17 H        0.380360       -0.000000       -0.011966       -0.011966
    18 H        0.362760       -0.000000       -0.004495       -0.004495
    --------------------------------------------------------------------
    Sum:       -0.000000        1.000000       -1.000000       -0.000000
    
    Multipole moment analysis of the density matrix
      Molecular charge:                      -0.000000
      Number of electrons:                   60.000000
        Center of electronic charge [Ang]: [ -0.003120,  -0.003410,  -0.005910]
      Total nuclear charge:                  60.000000
        Center of nuclear charge [Ang]:    [ -0.007335,  -0.016790,  -0.016173]
      Dipole moment [D]:                     5.009233
        Cartesian components [D]:          [ -1.214830,  -3.855860,  -2.957861]
      RMS size of the density [Ang]:        10.749136
        Cartesian components [Ang]:        [ 10.548970,   1.738101,   1.114522]
    
    Exciton analysis of the difference density matrix
      <r_h> [Ang]:                  [  9.001812,  -0.108453,   1.026581]
      <r_e> [Ang]:                  [  8.779525,  -0.076850,   0.915853]
      |<r_e - r_h>| [Ang]:            0.250342
      Hole size [Ang]:                0.122766
        Cartesian components [Ang]: [  0.070881,   0.070881,   0.070876]
      Electron size [Ang]:            1.149870
        Cartesian components [Ang]: [  0.850830,   0.548842,   0.545033]

  Singlet 12 :
  -------------------------
    NOs
      Occupation of frontier NOs:
         0.0000   1.0000   1.0000   2.0000
      Number of electrons: 60.000000
      Number of unpaired electrons: n_u =  2.00000, n_u,nl =  2.00000
      NO participation ratio (PR_NO):  2.000000
    
    NDOs
      Leading detachment eigenvalues:
        -1.0000  -0.0000
      Leading attachment eigenvalues:
         1.0000   0.0000
      Number of detached / attached electrons: p_D =  1.0000, p_A =  1.0000
      Number of involved orbitals: PR_D =  1.000000, PR_A =  1.000000
    
    Mulliken Population Analysis (State/Difference DM)
    Atom      Charge (e)              h+              e-           Del q
    --------------------------------------------------------------------
     1 O        0.348805        0.994428       -0.032188        0.962240
     2 H        0.283635        0.002779       -0.003204       -0.000425
     3 H        0.318046        0.002791       -0.006761       -0.003970
     4 O       -0.557505        0.000000       -0.000000        0.000000
     5 H        0.272836        0.000000       -0.000000        0.000000
     6 H        0.283668        0.000000       -0.000000       -0.000000
     7 O       -0.615993        0.000000       -0.000000       -0.000000
     8 H        0.316744        0.000000       -0.000000       -0.000000
     9 H        0.300250        0.000000       -0.000000       -0.000000
    10 O       -0.681325       -0.000000       -0.023617       -0.023617
    11 H        0.319706       -0.000000       -0.007700       -0.007700
    12 H        0.301822       -0.000000       -0.004491       -0.004491
    13 O       -1.272017       -0.000000       -0.627658       -0.627658
    14 H        0.354319        0.000001       -0.013473       -0.013472
    15 H        0.262063       -0.000000       -0.011570       -0.011571
    16 O       -0.882022        0.000001       -0.156724       -0.156723
    17 H        0.340663       -0.000000       -0.051663       -0.051663
    18 H        0.306306       -0.000000       -0.060948       -0.060948
    --------------------------------------------------------------------
    Sum:       -0.000000        1.000000       -1.000000       -0.000000
    
    Multipole moment analysis of the density matrix
      Molecular charge:                      -0.000000
      Number of electrons:                   60.000000
        Center of electronic charge [Ang]: [ -0.040516,  -0.019902,  -0.021747]
      Total nuclear charge:                  60.000000
        Center of nuclear charge [Ang]:    [ -0.007335,  -0.016790,  -0.016173]
      Dipole moment [D]:                     9.737788
        Cartesian components [D]:          [  9.562402,   0.896907,   1.606404]
      RMS size of the density [Ang]:        10.723953
        Cartesian components [Ang]:        [ 10.521537,   1.752096,   1.109319]
    
    Exciton analysis of the difference density matrix
      <r_h> [Ang]:                  [  9.001812,  -0.108453,   1.026581]
      <r_e> [Ang]:                  [  6.535766,  -1.066349,  -0.034401]
[...]
 941  H 9   f 7     -0.00092   0.00000  -0.00026   0.00036   0.00000
 942  H 9   g 1      0.00003  -0.00000  -0.00003   0.00000  -0.00000
 943  H 9   g 2      0.00016   0.00000  -0.00020  -0.00005   0.00000
 944  H 9   g 3      0.00002  -0.00000  -0.00001  -0.00000  -0.00000
 945  H 9   g 4      0.00027   0.00000  -0.00043  -0.00016   0.00000
 946  H 9   g 5     -0.00006  -0.00000  -0.00008   0.00010   0.00000
 947  H 9   g 6     -0.00003  -0.00000   0.00005   0.00002   0.00000
 948  H 9   g 7     -0.00008  -0.00000  -0.00017   0.00013   0.00000
 949  H 9   g 8     -0.00006  -0.00000   0.00006  -0.00001  -0.00000
 950  H 9   g 9     -0.00015   0.00000  -0.00020   0.00016   0.00000
 951  H 10  s        0.00223  -0.00000  -0.00607  -0.00298  -0.00000
 952  H 10  s       -0.00043   0.00000  -0.00563  -0.00317  -0.00000
 953  H 10  s        0.13967   0.00000  -0.26010  -0.08646  -0.00000
 954  H 10  s        0.13755  -0.00000   0.02844   0.12403   0.00000
 955  H 10  s        0.39214   0.00000  -1.09428  -0.63029  -0.00000
 956  H 10  px      -0.00009  -0.00000   0.00016  -0.00016   0.00000
 957  H 10  py      -0.00034  -0.00000   0.00059   0.00017  -0.00000
 958  H 10  pz      -0.00129  -0.00000   0.00317   0.00149   0.00000
 959  H 10  px       0.00057   0.00000  -0.00061   0.00001  -0.00000
 960  H 10  py      -0.00082  -0.00000   0.00027   0.00079   0.00000
 961  H 10  pz       0.00093   0.00000  -0.00624  -0.00198  -0.00000
 962  H 10  px      -0.00413  -0.00000   0.00182   0.00730   0.00000
 963  H 10  py       0.01802   0.00000  -0.02010  -0.01473  -0.00000
 964  H 10  pz       0.01783  -0.00000  -0.01052   0.01431   0.00000
 965  H 10  px       0.00483   0.00000  -0.01925   0.03893   0.00000
 966  H 10  py       0.02836   0.00000   0.01747   0.01702   0.00000
 967  H 10  pz       0.04222  -0.00000   0.00527   0.04601   0.00000
 968  H 10  d 1      0.00002  -0.00000  -0.00004   0.00004   0.00000
 969  H 10  d 2     -0.00055  -0.00000   0.00062   0.00055   0.00000
 970  H 10  d 3     -0.00015   0.00000   0.00024   0.00002  -0.00000
 971  H 10  d 4      0.00011   0.00000   0.00006  -0.00021  -0.00000
 972  H 10  d 5      0.00002   0.00000  -0.00034  -0.00004  -0.00000
 973  H 10  d 1     -0.00028   0.00000   0.00028   0.00009  -0.00000
 974  H 10  d 2      0.00455   0.00000  -0.00682  -0.00418  -0.00000
 975  H 10  d 3      0.00270  -0.00000  -0.00500   0.00016   0.00000
 976  H 10  d 4     -0.00077  -0.00000   0.00016   0.00136   0.00000
 977  H 10  d 5     -0.00062  -0.00000   0.00234   0.00085   0.00000
 978  H 10  d 1      0.00001  -0.00000  -0.00190   0.00554   0.00000
 979  H 10  d 2      0.00913   0.00000   0.00423  -0.00072   0.00000
 980  H 10  d 3     -0.00320  -0.00000   0.01746   0.01480   0.00000
 981  H 10  d 4     -0.00041  -0.00000  -0.00385   0.01241   0.00000
 982  H 10  d 5     -0.00295  -0.00000  -0.00404   0.00031  -0.00000
 983  H 10  f 1     -0.00005   0.00000   0.00019   0.00008   0.00000
 984  H 10  f 2     -0.00011  -0.00000   0.00009   0.00001   0.00000
 985  H 10  f 3      0.00037   0.00000  -0.00077  -0.00024  -0.00000
 986  H 10  f 4      0.00034  -0.00000  -0.00067  -0.00007  -0.00000
 987  H 10  f 5     -0.00005  -0.00000   0.00012  -0.00005  -0.00000
 988  H 10  f 6     -0.00025  -0.00000   0.00057   0.00030   0.00000
 989  H 10  f 7      0.00001  -0.00000  -0.00008   0.00001   0.00000
 990  H 10  f 1      0.00002   0.00000  -0.00063  -0.00026  -0.00000
 991  H 10  f 2      0.00006  -0.00000  -0.00062   0.00153   0.00000
 992  H 10  f 3      0.00226   0.00000   0.00060  -0.00110   0.00000
 993  H 10  f 4     -0.00201  -0.00000   0.00421   0.00306   0.00000
 994  H 10  f 5     -0.00028  -0.00000  -0.00095   0.00295   0.00000
 995  H 10  f 6     -0.00044  -0.00000  -0.00134  -0.00019   0.00000
 996  H 10  f 7      0.00001  -0.00000   0.00034  -0.00032  -0.00000
 997  H 10  g 1     -0.00000  -0.00000   0.00002  -0.00000   0.00000
 998  H 10  g 2     -0.00001  -0.00000  -0.00001   0.00000  -0.00000
 999  H 10  g 3     -0.00005  -0.00000  -0.00002   0.00019   0.00000
1000  H 10  g 4      0.00019   0.00000  -0.00004  -0.00009  -0.00000
1001  H 10  g 5     -0.00014  -0.00000   0.00016   0.00021   0.00000
1002  H 10  g 6     -0.00002  -0.00000  -0.00005   0.00021   0.00000
1003  H 10  g 7     -0.00017  -0.00000   0.00013   0.00012  -0.00000
1004  H 10  g 8      0.00001   0.00000   0.00001  -0.00004  -0.00000
1005  H 10  g 9     -0.00001   0.00000   0.00004   0.00001   0.00000
1006  O 6   s        0.00031   0.00000  -0.00047  -0.00004   0.00000
1007  O 6   s       -0.09808   0.00000  -0.03193   0.00177   0.00000
1008  O 6   s       -0.00648   0.00000  -0.00354   0.00043   0.00000
1009  O 6   s       -0.11512   0.00000  -0.05896   0.02986   0.00000
1010  O 6   s       -0.00109   0.00000   0.26794  -0.32903  -0.00000
1011  O 6   s        0.46930  -0.00000   1.03911  -0.48988  -0.00000
1012  O 6   px       0.02361  -0.00000   0.02609  -0.02118  -0.00000
1013  O 6   py      -0.00827  -0.00000  -0.02999  -0.01772  -0.00000
1014  O 6   pz       0.01366   0.00000  -0.00155  -0.01923  -0.00000
1015  O 6   px       0.03984  -0.00000   0.04592  -0.03711  -0.00000
1016  O 6   py      -0.01540  -0.00000  -0.05075  -0.02433  -0.00000
1017  O 6   pz       0.02283   0.00000   0.00165  -0.03210  -0.00000
1018  O 6   px       0.03690  -0.00000   0.02960  -0.02325  -0.00000
1019  O 6   py       0.00089   0.00000  -0.06643  -0.07576  -0.00000
1020  O 6   pz       0.03174   0.00000  -0.04168  -0.03657  -0.00000
1021  O 6   px      -0.06874   0.00000  -0.10549   0.09534   0.00000
1022  O 6   py       0.07808   0.00000   0.01482  -0.15838  -0.00000
1023  O 6   pz      -0.05006   0.00000  -0.17482  -0.02332   0.00000
1024  O 6   px       0.04215  -0.00000  -0.11716   0.10207   0.00000
1025  O 6   py       0.20926  -0.00000   0.10816  -0.26585  -0.00000
1026  O 6   pz       0.02964   0.00000  -0.47159  -0.18960  -0.00000
1027  O 6   d 1     -0.00003   0.00000  -0.00008  -0.00012  -0.00000
1028  O 6   d 2      0.00021  -0.00000   0.00004   0.00008   0.00000
1029  O 6   d 3      0.00012  -0.00000   0.00005  -0.00011  -0.00000
1030  O 6   d 4      0.00014   0.00000  -0.00015   0.00000   0.00000
1031  O 6   d 5      0.00015   0.00000   0.00009   0.00012  -0.00000
1032  O 6   d 1     -0.00006  -0.00000   0.00104   0.00004   0.00000
1033  O 6   d 2      0.00118   0.00000   0.00082  -0.00092  -0.00000
1034  O 6   d 3      0.00014   0.00000   0.00039  -0.00030   0.00000
1035  O 6   d 4     -0.00118  -0.00000  -0.00021   0.00012   0.00000
1036  O 6   d 5     -0.00171  -0.00000  -0.00065   0.00058   0.00000
1037  O 6   d 1     -0.00783  -0.00000  -0.00562   0.01278   0.00000
1038  O 6   d 2      0.00270  -0.00000   0.01284  -0.01081  -0.00000
1039  O 6   d 3     -0.00007  -0.00000   0.01250  -0.00047  -0.00000
1040  O 6   d 4      0.00713  -0.00000   0.01286   0.00093  -0.00000
1041  O 6   d 5      0.00280  -0.00000   0.00004   0.00721   0.00000
1042  O 6   d 1      0.00604  -0.00000   0.00085   0.06824   0.00000
1043  O 6   d 2     -0.03412  -0.00000   0.01959  -0.03026  -0.00000
1044  O 6   d 3      0.00118  -0.00000   0.04441   0.00646   0.00000
1045  O 6   d 4      0.02175  -0.00000   0.03838   0.01590   0.00000
1046  O 6   d 5     -0.01697  -0.00000  -0.02571   0.02212   0.00000
1047  O 6   f 1      0.00003  -0.00000   0.00003   0.00023   0.00000
1048  O 6   f 2     -0.00033  -0.00000  -0.00005  -0.00022  -0.00000
1049  O 6   f 3     -0.00006  -0.00000   0.00001  -0.00023  -0.00000
1050  O 6   f 4     -0.00012  -0.00000   0.00009  -0.00000   0.00000
1051  O 6   f 5     -0.00001  -0.00000   0.00010  -0.00001  -0.00000
1052  O 6   f 6      0.00001   0.00000   0.00026  -0.00001  -0.00000
1053  O 6   f 7     -0.00004  -0.00000  -0.00011   0.00005  -0.00000
1054  O 6   f 1     -0.00028   0.00000  -0.00039  -0.00107  -0.00000
1055  O 6   f 2      0.00116   0.00000  -0.00094   0.00221   0.00000
1056  O 6   f 3      0.00020   0.00000  -0.00128   0.00146   0.00000
1057  O 6   f 4      0.00009   0.00000  -0.00128   0.00127   0.00000
1058  O 6   f 5      0.00005   0.00000  -0.00186   0.00026   0.00000
1059  O 6   f 6     -0.00037  -0.00000  -0.00150   0.00080   0.00000
1060  O 6   f 7      0.00072   0.00000   0.00084  -0.00154  -0.00000
1061  O 6   f 1     -0.00199  -0.00000  -0.00622  -0.00141  -0.00000
1062  O 6   f 2      0.00889   0.00000  -0.00053  -0.00394  -0.00000
1063  O 6   f 3      0.00532   0.00000   0.00047   0.00347   0.00000
1064  O 6   f 4      0.00503   0.00000  -0.00505   0.00804   0.00000
1065  O 6   f 5      0.00010   0.00000  -0.00844  -0.00730  -0.00000
1066  O 6   f 6     -0.00471  -0.00000  -0.00385  -0.00271  -0.00000
1067  O 6   f 7     -0.00689   0.00000  -0.00081  -0.00963  -0.00000
1068  O 6   g 1     -0.00004   0.00000  -0.00012  -0.00011   0.00000
1069  O 6   g 2      0.00004   0.00000   0.00012  -0.00000   0.00000
1070  O 6   g 3      0.00001  -0.00000   0.00024   0.00003   0.00000
1071  O 6   g 4     -0.00004  -0.00000   0.00013   0.00009   0.00000
1072  O 6   g 5     -0.00006  -0.00000  -0.00001   0.00012   0.00000
1073  O 6   g 6     -0.00001   0.00000   0.00011  -0.00016  -0.00000
1074  O 6   g 7     -0.00009  -0.00000  -0.00001  -0.00010  -0.00000
1075  O 6   g 8      0.00014  -0.00000   0.00001  -0.00025  -0.00000
1076  O 6   g 9     -0.00000   0.00000  -0.00008   0.00007  -0.00000
1077  O 6   g 1     -0.00012   0.00000   0.00076  -0.00015  -0.00000
1078  O 6   g 2     -0.00084  -0.00000  -0.00076   0.00055   0.00000
1079  O 6   g 3     -0.00077   0.00000  -0.00117  -0.00021  -0.00000
1080  O 6   g 4     -0.00018  -0.00000  -0.00018   0.00024  -0.00000
1081  O 6   g 5      0.00085   0.00000  -0.00008  -0.00163  -0.00000
1082  O 6   g 6     -0.00094  -0.00000   0.00001   0.00057   0.00000
1083  O 6   g 7      0.00115  -0.00000   0.00059   0.00081   0.00000
1084  O 6   g 8     -0.00109   0.00000  -0.00012   0.00056   0.00000
1085  O 6   g 9      0.00063   0.00000   0.00111   0.00043   0.00000
1086  O 6   h 1      0.00015   0.00000   0.00019   0.00003   0.00000
1087  O 6   h 2     -0.00022  -0.00000  -0.00006  -0.00009  -0.00000
1088  O 6   h 3      0.00010  -0.00000   0.00006  -0.00017  -0.00000
1089  O 6   h 4      0.00012  -0.00000  -0.00004  -0.00016  -0.00000
1090  O 6   h 5      0.00028   0.00000   0.00005  -0.00012  -0.00000
1091  O 6   h 6     -0.00020  -0.00000  -0.00015   0.00011   0.00000
1092  O 6   h 7      0.00002   0.00000   0.00010   0.00005  -0.00000
1093  O 6   h 8     -0.00010  -0.00000  -0.00009  -0.00022   0.00000
1094  O 6   h 9     -0.00024  -0.00000   0.00007   0.00009   0.00000
1095  O 6   h10      0.00013   0.00000   0.00015  -0.00001  -0.00000
1096  O 6   h11      0.00004   0.00000  -0.00008   0.00001   0.00000
1097  H 11  s        0.00755  -0.00000   0.00431   0.00038   0.00000
1098  H 11  s        0.02843   0.00000   0.01622  -0.01857  -0.00000
1099  H 11  s        0.07110  -0.00000  -0.01038   0.20605   0.00000
1100  H 11  s       -0.69047  -0.00000  -0.65667   0.50708   0.00000
1101  H 11  s        0.56814  -0.00000   1.01917   0.42010   0.00000
1102  H 11  px      -0.00133   0.00000  -0.00174  -0.00033  -0.00000
1103  H 11  py       0.00194  -0.00000   0.00196   0.00020  -0.00000
1104  H 11  pz       0.00131   0.00000   0.00076  -0.00002  -0.00000
1105  H 11  px       0.00374   0.00000   0.00470  -0.00269  -0.00000
1106  H 11  py      -0.00416  -0.00000  -0.00351   0.00329   0.00000
1107  H 11  pz      -0.00395  -0.00000  -0.00045   0.00179   0.00000
1108  H 11  px      -0.02722  -0.00000  -0.05552   0.03794   0.00000
1109  H 11  py       0.03663   0.00000   0.05388  -0.06428  -0.00000
1110  H 11  pz       0.03537   0.00000   0.01883  -0.04221  -0.00000
1111  H 11  px      -0.18464  -0.00000  -0.13955   0.11201   0.00000
1112  H 11  py       0.17574   0.00000   0.13615  -0.14906  -0.00000
1113  H 11  pz       0.10079   0.00000   0.14850  -0.04678  -0.00000
1114  H 11  d 1      0.00034  -0.00000  -0.00024   0.00063   0.00000
1115  H 11  d 2      0.00044   0.00000  -0.00022  -0.00101  -0.00000
1116  H 11  d 3      0.00025  -0.00000  -0.00021   0.00005   0.00000
1117  H 11  d 4      0.00019  -0.00000   0.00057   0.00043   0.00000
1118  H 11  d 5     -0.00012   0.00000   0.00007   0.00015  -0.00000
1119  H 11  d 1     -0.00196   0.00000   0.00381  -0.00586  -0.00000
1120  H 11  d 2     -0.00331  -0.00000   0.00004   0.00899   0.00000
1121  H 11  d 3     -0.00191  -0.00000   0.00240  -0.00070  -0.00000
1122  H 11  d 4     -0.00026   0.00000  -0.00138  -0.00427  -0.00000
1123  H 11  d 5      0.00113  -0.00000   0.00001  -0.00305  -0.00000
1124  H 11  d 1      0.04485   0.00000   0.03409  -0.03144  -0.00000
1125  H 11  d 2     -0.02792  -0.00000  -0.02567   0.01743   0.00000
1126  H 11  d 3      0.01470   0.00000   0.00790  -0.01537  -0.00000
1127  H 11  d 4      0.03131   0.00000   0.03012  -0.01762  -0.00000
1128  H 11  d 5      0.00468  -0.00000   0.00117  -0.01434  -0.00000
1129  H 11  f 1     -0.00037   0.00000   0.00005  -0.00003  -0.00000
1130  H 11  f 2      0.00032   0.00000   0.00012   0.00034   0.00000
1131  H 11  f 3      0.00034   0.00000  -0.00026  -0.00028  -0.00000
1132  H 11  f 4      0.00014   0.00000   0.00002   0.00020   0.00000
1133  H 11  f 5     -0.00008  -0.00000   0.00026  -0.00004   0.00000
1134  H 11  f 6      0.00002  -0.00000   0.00022   0.00031   0.00000
1135  H 11  f 7     -0.00035  -0.00000   0.00011  -0.00020  -0.00000
1136  H 11  f 1      0.00299   0.00000   0.00280  -0.00094  -0.00000
1137  H 11  f 2     -0.00718  -0.00000  -0.00525   0.00556   0.00000
1138  H 11  f 3     -0.00031   0.00000   0.00042   0.00153   0.00000
1139  H 11  f 4     -0.00448  -0.00000  -0.00303   0.00404   0.00000
1140  H 11  f 5     -0.00033  -0.00000  -0.00047   0.00020  -0.00000
1141  H 11  f 6     -0.00207   0.00000  -0.00116   0.00197   0.00000
1142  H 11  f 7      0.00504   0.00000   0.00350  -0.00521  -0.00000
1143  H 11  g 1     -0.00013   0.00000  -0.00007   0.00019   0.00000
1144  H 11  g 2     -0.00017  -0.00000  -0.00023   0.00005   0.00000
1145  H 11  g 3      0.00017   0.00000   0.00004  -0.00008  -0.00000
1146  H 11  g 4      0.00026  -0.00000   0.00015  -0.00030  -0.00000
1147  H 11  g 5      0.00022   0.00000   0.00011  -0.00009  -0.00000
1148  H 11  g 6     -0.00019  -0.00000  -0.00016   0.00015   0.00000
1149  H 11  g 7      0.00010   0.00000   0.00004  -0.00001   0.00000
1150  H 11  g 8     -0.00042  -0.00000  -0.00028   0.00045   0.00000
1151  H 11  g 9      0.00021   0.00000   0.00026  -0.00023  -0.00000
1152  H 12  s        0.00694  -0.00000   0.00216  -0.00239  -0.00000
1153  H 12  s        0.02086  -0.00000   0.02594  -0.01215  -0.00000
1154  H 12  s        0.03421   0.00000  -0.18386  -0.00490   0.00000
1155  H 12  s       -0.44957   0.00000  -0.96222   0.31023   0.00000
1156  H 12  s        0.78750  -0.00000   0.00378  -0.88836  -0.00000
1157  H 12  px      -0.00122   0.00000  -0.00037   0.00089   0.00000
1158  H 12  py      -0.00096  -0.00000  -0.00003   0.00051   0.00000
1159  H 12  pz      -0.00229  -0.00000  -0.00063   0.00198   0.00000
1160  H 12  px       0.00188  -0.00000   0.00374  -0.00303  -0.00000
1161  H 12  py       0.00191   0.00000   0.00034  -0.00129  -0.00000
1162  H 12  pz       0.00302   0.00000   0.00438  -0.00543  -0.00000
1163  H 12  px      -0.01530   0.00000  -0.04826   0.03736   0.00000
1164  H 12  py      -0.03284   0.00000  -0.03472   0.01570   0.00000
1165  H 12  pz      -0.04875   0.00000  -0.08839   0.05028   0.00000
1166  H 12  px      -0.09204   0.00000  -0.20356   0.06252   0.00000
1167  H 12  py      -0.10614   0.00000  -0.14526   0.08854   0.00000
1168  H 12  pz      -0.15075   0.00000  -0.23164   0.11470   0.00000
1169  H 12  d 1     -0.00067  -0.00000  -0.00050   0.00021   0.00000
1170  H 12  d 2      0.00046   0.00000   0.00029  -0.00020   0.00000
1171  H 12  d 3     -0.00014   0.00000   0.00076   0.00007   0.00000
1172  H 12  d 4     -0.00043   0.00000   0.00069  -0.00030  -0.00000
1173  H 12  d 5     -0.00007   0.00000  -0.00022  -0.00017  -0.00000
1174  H 12  d 1      0.00221   0.00000   0.00029  -0.00036   0.00000
1175  H 12  d 2     -0.00431   0.00000  -0.00626   0.00052   0.00000
1176  H 12  d 3     -0.00069   0.00000  -0.00749   0.00041   0.00000
1177  H 12  d 4      0.00187   0.00000  -0.00628   0.00333   0.00000
1178  H 12  d 5      0.00130  -0.00000   0.00164   0.00187   0.00000
1179  H 12  d 1     -0.02772  -0.00000  -0.03784   0.01452   0.00000
1180  H 12  d 2     -0.02629  -0.00000  -0.03302   0.02489   0.00000
1181  H 12  d 3     -0.02132   0.00000  -0.02008   0.01650   0.00000
1182  H 12  d 4     -0.01945   0.00000  -0.04536   0.03118   0.00000
1183  H 12  d 5      0.00759   0.00000  -0.00903   0.00453   0.00000
1184  H 12  f 1      0.00012  -0.00000   0.00007   0.00007   0.00000
1185  H 12  f 2      0.00015   0.00000   0.00008  -0.00005  -0.00000
1186  H 12  f 3     -0.00006   0.00000  -0.00044  -0.00035   0.00000
1187  H 12  f 4      0.00010   0.00000  -0.00014   0.00015   0.00000
1188  H 12  f 5      0.00019   0.00000  -0.00028  -0.00004  -0.00000
1189  H 12  f 6      0.00002  -0.00000   0.00014   0.00020   0.00000
1190  H 12  f 7     -0.00013   0.00000  -0.00017   0.00001  -0.00000
1191  H 12  f 1     -0.00106   0.00000  -0.00247   0.00090   0.00000
1192  H 12  f 2     -0.00464  -0.00000  -0.00826   0.00365   0.00000
1193  H 12  f 3     -0.00472   0.00000  -0.00508   0.00414   0.00000
1194  H 12  f 4     -0.00160  -0.00000  -0.00067  -0.00142  -0.00000
1195  H 12  f 5     -0.00190   0.00000  -0.00672   0.00480   0.00000
1196  H 12  f 6      0.00304   0.00000  -0.00185   0.00129   0.00000
1197  H 12  f 7      0.00261  -0.00000   0.00239   0.00043  -0.00000
1198  H 12  g 1      0.00001  -0.00000   0.00002   0.00008   0.00000
1199  H 12  g 2     -0.00009  -0.00000  -0.00031   0.00018   0.00000
1200  H 12  g 3     -0.00033   0.00000  -0.00060   0.00027   0.00000
1201  H 12  g 4     -0.00024  -0.00000  -0.00030   0.00006   0.00000
1202  H 12  g 5      0.00001  -0.00000   0.00019  -0.00018  -0.00000
1203  H 12  g 6     -0.00008  -0.00000  -0.00027   0.00014   0.00000
1204  H 12  g 7      0.00032  -0.00000  -0.00012   0.00009  -0.00000
1205  H 12  g 8      0.00028  -0.00000   0.00019   0.00001   0.00000
1206  H 12  g 9      0.00011   0.00000   0.00011   0.00000  -0.00000

 -----------------------------------------------------------------
                    Cartesian Multipole Moments
 -----------------------------------------------------------------
    Charge (ESU x 10^10)
                -0.0000
    Dipole Moment (Debye)
         X      -2.2825      Y      -3.7041      Z      -3.4897
       Tot       5.5775
    Quadrupole Moments (Debye-Ang)
        XX     -85.1187     XY      38.5034     YY     -45.3646
        XZ     -25.1044     YZ       5.3843     ZZ     -46.0542
    Octopole Moments (Debye-Ang^2)
       XXX    -216.1023    XXY    -787.2072    XYY    -149.7566
       YYY     -58.1530    XXZ    -189.8296    XYZ      85.9329
       YYZ      -3.3388    XZZ      21.7035    YZZ     -12.2193
       ZZZ      -8.4990
    Hexadecapole Moments (Debye-Ang^3)
      XXXX  -31373.1143   XXXY    8552.9136   XXYY   -3835.3254
      XYYY    -234.8535   YYYY    -759.4211   XXXZ   -1681.8214
      XXYZ     -45.2776   XYYZ     307.8086   YYYZ     121.7837
      XXZZ   -5461.3984   XYZZ    -203.2304   YYZZ    -210.5815
      XZZZ     447.6601   YZZZ      48.4272   ZZZZ    -339.4172
 -----------------------------------------------------------------
 Total job time:  21239.23s(wall), 81022.27s(cpu) 
 Fri Dec 20 04:00:45 2024

        *************************************************************
        *                                                           *
        *  Thank you very much for using Q-Chem.  Have a nice day.  *
        *                                                           *
        *************************************************************


