                  Welcome to Q-Chem
     A Quantum Leap Into The Future Of Chemistry


 Q-Chem 6.2 (devel), Q-Chem, Inc., Pleasanton, CA (2024)

 E. Epifanovsky,  A. T. B. Gilbert,  Xintian Feng,  Joonho Lee,  Yuezhi Mao,  
 N. Mardirossian,  P. Pokhilko,  A. White,  M. Wormit,  M. P. Coons,  
 A. L. Dempwolff,  Zhengting Gan,  D. Hait,  P. R. Horn,  L. D. Jacobson,  
 I. Kaliman,  J. Kussmann,  A. W. Lange,  Ka Un Lao,  D. S. Levine,  Jie Liu,  
 S. C. McKenzie,  A. F. Morrison,  K. D. Nanda,  F. Plasser,  D. R. Rehn,  
 M. L. Vidal,  Zhi-Qiang You,  Ying Zhu,  Huseyin Aksu,  B. Alam,  
 B. Albrecht,  A. Aldossary,  E. Alguire,  J. H. Andersen,  
 J. E. Arias-Martinez,  V. Athavale,  D. Barton,  K. Begam,  A. Behn,  
 N. Bellonzi,  Y. A. Bernard,  E. J. Berquist,  H. Burton,  A. Carreras,  
 K. Carter-Fenk,  Mathew Chow,  Romit Chakraborty,  Chandrima Chakravarty,  
 Junhan Chen,  A. D. Chien,  K. D. Closser,  V. Cofer-Shabica,  L. Cunha,  
 S. Dasgupta,  Jia Deng,  Joseph Dickinson,  M. de Wergifosse,  
 M. Diedenhofen,  Hainam Do,  Wenjie Dou,  S. Ehlert,  Po-Tung Fang,  
 S. Fatehi,  Qingguo Feng,  Jonathan Fetherolf,  T. Friedhoff,  
 Thomas Froitzheim,  Sarai Folkestad,  B. Ganoe,  J. Gayvert,  Qinghui Ge,  
 G. Gidofalvi,  M. Gimferrer,  M. Goldey,  Montgomery Gray,  J. Gomes,  
 C. Gonzalez-Espinoza,  S. Gulania,  A. Gunina,  J. A. Gyamfi,  
 M. W. D. Hanson-Heine,  P. H. P. Harbach,  A. W. Hauser,  M. F. Herbst,  
 M. Hernandez Vera,  M. Hodecker,  Z. C. Holden,  S. Houck,  Xunkun Huang,  
 Kerwin Hui,  B. C. Huynh,  K. Ikeda,  M. Ivanov,  Nayanthara K. Jayadev,  
 Hyunjun Ji,  Zuxin Jin,  Hanjie Jiang,  Subrata Jana,  B. Kaduk,  
 S. Kaehler,  R. Kang,  K. Khistyaev,  Jaehoon Kim,  Yongbin Kim,  
 P. Klunzinger,  Z. Koczor-Benda,  Joong Hoon Koh,  D. Kosenkov,  
 Saikiran Kotaru,  L. Koulias,  T. Kowalczyk,  C. M. Krauter,  K. Kue,  
 A. Kunitsa,  T. Kus,  A. Landau,  K. V. Lawler,  D. Lefrancois,  S. Lehtola,  
 Rain Li,  Shaozhi Li,  Tao E. Li,  Yi-Pei Li,  Jiashu Liang,  M. Liebenthal,  
 Hung-Hsuan Lin,  You-Sheng Lin,  Fenglai Liu,  Kuan-Yu Liu,  Xiao Liu,  
 M. Loipersberger,  A. Luenser,  C. Malbon,  Aniket Mandal,  Manisha,  
 A. Manjanath,  P. Manohar,  E. Mansoor,  S. F. Manzer,  Shan-Ping Mao,  
 A. V. Marenich,  T. Markovich,  S. Mason,  F. Matz,  S. A. Maurer,  
 Samuel May,  Alexandra McIsaac,  P. F. McLaughlin,  M. F. S. J. Menger,  
 J.-M. Mewes,  S. A. Mewes,  P. Morgante,  Mohammad Mostafanejad,  
 Madhubani Mukherjee,  J. W. Mullinax,  Quyen Nguyen,  Avik Kumar Ojha,  
 K. J. Oosterbaan,  Eno Paenurk,  Xiaoliang Pan,  G. Paran,  V. Parravicini,  
 Alexander C. Paul,  Suranjan K. Paul,  F. Pavosevic,  Zheng Pei,  S. Prager,  
 E. I. Proynov,  E. Ramos,  B. Rana,  A. E. Rask,  A. Rettig,  R. M. Richard,  
 F. Rob,  E. Rossomme,  T. Scheele,  M. Scheurer,  M. Schneider,  
 P. E. Schneider,  Tim K. Schramm,  N. Sergueev,  S. M. Sharada,  
 Hengyuan Shen,  W. Skomorowski,  D. W. Small,  C. J. Stein,  
 Alistair J. Sterling,  Yingli Su,  Yu-Chuan Su,  E. J. Sundstrom,  
 J. Talbot,  Zhen Tao,  J. Thirman,  Hung-Yi Tsai,  T. Tsuchimochi,  
 N. M. Tubman,  C. Utku,  S. P. Veccham,  O. Vydrov,  Rahel Weiss,  
 J. Wenzel,  Jonathan Wong,  J. Witte,  H. Wu,  Yanze Wu,  A. Yamada,  
 Chou-Hsun Yang,  Kun Yao,  S. Yeganeh,  S. R. Yost,  Qi Yu,  A. Zech,  
 F. Zeller,  Chongxiao Zhao,  Igor Ying Zhang,  Xing Zhang,  Yu Zhang,  
 D. Zuev,  A. Aspuru-Guzik,  A. T. Bell,  N. A. Besley,  K. B. Bravaya,  
 B. R. Brooks,  D. Casanova,  Jeng-Da Chai,  Hsing-Ta Chen,  S. Coriani,  
 C. J. Cramer,  A. E. DePrince, III,  R. A. DiStasio Jr.,  A. Dreuw,  
 B. D. Dunietz,  T. R. Furlani,  W. A. Goddard III,  S. Grimme,  
 S. Hammes-Schiffer,  T. Head-Gordon,  W. J. Hehre,  Chao-Ping Hsu,  
 T.-C. Jagau,  Yousung Jung,  A. Klamt,  Jing Kong,  D. S. Lambrecht,  
 Xiangyuan Li,  WanZhen Liang,  N. J. Mayhall,  C. W. McCurdy,  J. B. Neaton,  
 T. Neudecker,  C. Ochsenfeld,  J. A. Parkhill,  R. Peverati,  
 V. A. Rassolov,  Haisheng Ren,  Yihan Shao,  L. V. Slipchenko,  
 R. P. Steele,  J. E. Subotnik,  A. J. W. Thom,  A. Tkatchenko,  
 D. G. Truhlar,  T. Van Voorhis,  Fan Wang,  T. A. Wesolowski,  K. B. Whaley,  
 H. L. Woodcock III,  P. M. Zimmerman,  S. Faraji,  P. M. W. Gill,  
 M. Head-Gordon,  J. M. Herbert,  A. I. Krylov

 Contributors to earlier versions of Q-Chem not listed above: 
 R. D. Adamson,  B. Austin,  R. Baer,  J. Baker,  G. J. O. Beran,  
 K. Brandhorst,  S. T. Brown,  E. F. C. Byrd,  Arup K. Chakraborty,  
 G. K. L. Chan,  Chun-Min Chang,  Yunqing Chen,  C.-L. Cheng,  
 Siu Hung Chien,  D. M. Chipman,  D. L. Crittenden,  H. Dachsel,  
 R. J. Doerksen,  A. D. Dutoi,  R. G. Edgar,  J. Fosso-Tande,  
 L. Fusti-Molnar,  D. Ghosh,  A. Ghysels,  A. Golubeva-Zadorozhnaya,  
 J. Gonthier,  M. S. Gordon,  S. R. Gwaltney,  G. Hawkins,  J. E. Herr,  
 A. Heyden,  S. Hirata,  E. G. Hohenstein,  G. Kedziora,  F. J. Keil,  
 C. Kelley,  Jihan Kim,  R. A. King,  R. Z. Khaliullin,  P. P. Korambath,  
 W. Kurlancheek,  A. Laurent,  A. M. Lee,  M. S. Lee,  S. V. Levchenko,  
 Ching Yeh Lin,  D. Liotard,  E. Livshits,  R. C. Lochan,  I. Lotan,  
 L. A. Martinez-Martinez,  P. E. Maslen,  N. Nair,  D. P. O'Neill,  
 D. Neuhauser,  E. Neuscamman,  C. M. Oana,  R. Olivares-Amaya,  R. Olson,  
 T. M. Perrine,  B. Peters,  P. A. Pieniazek,  A. Prociuk,  Y. M. Rhee,  
 J. Ritchie,  M. A. Rohrdanz,  E. Rosta,  N. J. Russ,  H. F. Schaefer III,  
 M. W. Schmidt,  N. E. Schultz,  S. Sharma,  N. Shenvi,  C. D. Sherrill,  
 A. C. Simmonett,  A. Sodt,  T. Stein,  D. Stuck,  K. S. Thanthiriwatte,  
 V. Vanovschi,  L. Vogt,  Tao Wang,  A. Warshel,  M. A. Watson,  
 C. F. Williams,  Q. Wu,  X. Xu,  Jun Yang,  W. Zhang,  Yan Zhao

   Please cite Q-Chem as follows:
  "Software for the frontiers of quantum chemistry:
   An overview of developments in the Q-Chem 5 package"
   J. Chem. Phys. 155, 084801 (2021)
   https://doi.org/10.1063/5.0055522 (open access)

 Q-Chem 6.2.2 for Intel X86 EM64T Linux

 Parts of Q-Chem use Armadillo 9.900.5 (Nocturnal Misbehaviour).
 http://arma.sourceforge.net/

 Q-Chem begins on Tue Jan 14 18:44:54 2025  

 Host: compute-0-8.local
0

     Scratch files written to /scratch/keith/A1D2_2//
 Processing $rem in /home/keith/software/qchem/qchem_622/config/preferences:
 Processing $rem in /home/keith/.qchemrc:

 Checking the input file for inconsistencies... 	...done.

--------------------------------------------------------------
User input:
--------------------------------------------------------------
$molecule
read
$end

$rem
method                    b3lyp 
basis                     cc-pv5z 
mem_total                 63000
mem_static                8000
thresh                    12
scf_convergence           8
xc_grid                   000075000302
max_scf_cycles            2000
symmetry                  false
sym_ignore                true
scf_guess                 read
mom_start                 1
cis_n_roots               100
cis_triplets              false
rpa                       false 
trnss                     true
trtype                    2
n_sol                     83
nto_pairs                 2
gui                       2
print_orbitals            true
state_analysis            true
$end

$solute 
4 1063 1064 1065 1066 1067 1068 1069 1070 1071 1072 1073 1074 1075 1076 1077 1078 1079 1080 1081 1082 1083 1084 1085 1086 1087 1088 1089 1090 1091 1092 1093 1094 1095 1096 1097 1098 1099 1100 1101 1102 1103 1104 1105 1106 1107 1108 1109 1110 1111 1112 1113 1114 1115 1116 1117 1118 1119 1120 1121 1122 1123 1124 1125 1126 1127 1128 1129 1130 1131 1132 1133 1134 1135 1136 1137 1138 1139 1140 1141 1142 1143 1144
$end
--------------------------------------------------------------
 ----------------------------------------------------------------
             Standard Nuclear Orientation (Angstroms)
    I     Atom           X                Y                Z
 ----------------------------------------------------------------
    1      O      -0.5443400000     0.1504400000     0.8074000000
    2      H      -1.4389400000     0.4432400000     0.8584000000
    3      H      -0.5001400000    -0.7862600000     0.7654000000
    4      O       1.3491600000     2.5933400000     0.7844000000
    5      H       1.1971600000     1.6388400000     0.9244000000
    6      H       2.1171600000     2.8921400000     1.2554000000
    7      O      -0.6073400000    -0.1717600000    -2.3726000000
    8      H      -0.1853400000     0.4853400000    -1.8596000000
    9      H      -1.5157400000    -0.1705600000    -2.0526000000
   10      O       0.1554600000    -2.2779600000    -0.7286000000
   11      H      -0.3993400000    -3.0349600000    -0.6396000000
   12      H      -0.0702400000    -1.7605600000    -1.5246000000
   13      O       2.9041600000    -2.0044600000    -0.0486000000
   14      H       3.1351600000    -2.7499600000    -0.7296000000
   15      H       1.8981600000    -2.0725600000    -0.0696000000
   16      O      -3.1796400000     1.7743400000     1.5964000000
   17      H      -2.2592400000     1.9979400000     1.7924000000
   18      H      -3.2077400000     2.1028400000     0.6704000000
 ----------------------------------------------------------------
 Nuclear Repulsion Energy =         256.80625098 hartrees
 There are       30 alpha and       30 beta electrons
 Requested basis set is cc-pV5Z
 There are 306 shells and 1206 basis functions

 Total QAlloc Memory Limit  63000 MB
 Mega-Array Size      7821 MB
 MEM_STATIC part      8000 MB

 A cutoff of  1.0D-12 yielded  28951 shell pairs
 There are    382065 function pairs (    632227 Cartesian)
 Smallest overlap matrix eigenvalue = 2.41E-05

 Scale SEOQF with 1.000000e-01/1.000000e-01/1.000000e-01

 Standard Electronic Orientation quadrupole field applied
 Nucleus-field energy     =     0.0000000110 hartrees
 Guess MOs from SCF MO coefficient file

 -----------------------------------------------------------------------
  General SCF calculation program by
  Eric Jon Sundstrom, Paul Horn, Yuezhi Mao, Dmitri Zuev, Alec White,
  David Stuck, Shaama M.S., Shane Yost, Joonho Lee, David Small,
  Daniel Levine, Susi Lehtola, Hugh Burton, Evgeny Epifanovsky,
  Bang C. Huynh
 -----------------------------------------------------------------------
 Exchange:     0.2000 Hartree-Fock + 0.0800 Slater + 0.7200 B88
 Correlation:  0.1900 VWN1RPA + 0.8100 LYP
 Using Euler-Maclaurin-Lebedev (75,302) quadrature formula
 A restricted SCF calculation will be
 performed using DIIS
 SCF converges when DIIS error is below 1.0e-08
 ---------------------------------------
  Cycle       Energy         DIIS error
 ---------------------------------------
Maximum Overlap Method Active
 MOM overlap:    30.0 / 30
    1    -458.8569977400      1.13e-09  
    2    -458.8569977400      1.83e-09  Convergence criterion met
Maximum Overlap Method Active
 MOM overlap:    30.00 / 30
 ---------------------------------------
 SCF time:   CPU 13508.10s  wall 3387.00s 
 SCF   energy =  -458.85699774
 Total energy =  -458.85699774
 MAX_CIS_SUBSPACE fits in available memory
 Direct TDDFT/TDA calculation will be performed
 Exchange:     0.2000 Hartree-Fock + 0.0800 Slater + 0.7200 B88
 Correlation:  0.1900 VWN1RPA + 0.8100 LYP
 Using Euler-Maclaurin-Lebedev (75,302) quadrature formula
 Singlet excitation energies requested
 CIS energy converged when residual is below 10e- 6
   
 ***Using a Restricted Set of Single Excitations***
   
 RCIS calculation
   
 Excitations limited to defined orbital subspace
 -------------------------------------------------------------
              Orbitals in Truncated CIS space
 -------------------------------------------------------------
     410631064106510661067106810691070107110721073107410751076
  107710781079108010811082108310841085108610871088108910901091
  109210931094109510961097109810991100110111021103110411051106
  110711081109111011111112111311141115111611171118111911201121
  112211231124112511261127112811291130113111321133113411351136
  11371138113911401141114211431144
   
    Number of Occupied Orbitals =    1  out of    30
    Number of Virtual Orbitals  =   82  out of  1176
 -------------------------------------------------------------
 Number of Roots adjusted to:          82
 ---------------------------------------------------
 Iter    Rts Conv    Rts Left    Ttl Dev     Max Dev
 ---------------------------------------------------
   1        82           0      0.010110    0.000587    Roots Converged
 ---------------------------------------------------

 ---------------------------------------------------
         TDDFT/TDA Excitation Energies              
 ---------------------------------------------------

 Excited state   1: excitation energy (eV) =    1018.1640
 Total energy for state   1:                  -421.44015962 au
    Multiplicity: Singlet
    Trans. Mom.: -0.0045 X  -0.0032 Y  -0.0004 Z
    Strength   :     0.0007681878
    D(    4) --> V( 1036) amplitude =  0.9707

 Excited state   2: excitation energy (eV) =    1021.8340
 Total energy for state   2:                  -421.30528991 au
    Multiplicity: Singlet
    Trans. Mom.: -0.0003 X   0.0007 Y   0.0001 Z
    Strength   :     0.0000137744
    D(    4) --> V( 1033) amplitude =  0.9937

 Excited state   3: excitation energy (eV) =    1022.2625
 Total energy for state   3:                  -421.28954242 au
    Multiplicity: Singlet
    Trans. Mom.: -0.0017 X   0.0014 Y  -0.0002 Z
    Strength   :     0.0001184936
    D(    4) --> V( 1034) amplitude =  0.9855

 Excited state   4: excitation energy (eV) =    1022.5483
 Total energy for state   4:                  -421.27903969 au
    Multiplicity: Singlet
    Trans. Mom.:  0.0054 X  -0.0008 Y  -0.0005 Z
    Strength   :     0.0007572604
    D(    4) --> V( 1035) amplitude =  0.9929

 Excited state   5: excitation energy (eV) =    1023.3299
 Total energy for state   5:                  -421.25031819 au
    Multiplicity: Singlet
    Trans. Mom.: -0.0005 X  -0.0007 Y  -0.0002 Z
    Strength   :     0.0000183526
    D(    4) --> V( 1037) amplitude =  0.9954

 Excited state   6: excitation energy (eV) =    1024.1284
 Total energy for state   6:                  -421.22097283 au
    Multiplicity: Singlet
    Trans. Mom.:  0.0022 X  -0.0009 Y  -0.0001 Z
    Strength   :     0.0001478741
    D(    4) --> V( 1038) amplitude =  0.8929
    D(    4) --> V( 1039) amplitude =  0.4297

 Excited state   7: excitation energy (eV) =    1024.3983
 Total energy for state   7:                  -421.21105417 au
    Multiplicity: Singlet
    Trans. Mom.:  0.0002 X  -0.0006 Y  -0.0001 Z
    Strength   :     0.0000109000
    D(    4) --> V( 1038) amplitude = -0.4335
    D(    4) --> V( 1039) amplitude =  0.8946

 Excited state   8: excitation energy (eV) =    1025.2674
 Total energy for state   8:                  -421.17911517 au
    Multiplicity: Singlet
    Trans. Mom.:  0.0000 X   0.0008 Y   0.0000 Z
    Strength   :     0.0000157775
    D(    4) --> V( 1040) amplitude =  0.9939

 Excited state   9: excitation energy (eV) =    1026.9122
 Total energy for state   9:                  -421.11866968 au
    Multiplicity: Singlet
    Trans. Mom.: -0.0021 X   0.0017 Y   0.0001 Z
    Strength   :     0.0001823904
    D(    4) --> V( 1041) amplitude =  0.2477
    D(    4) --> V( 1042) amplitude =  0.9665

 Excited state  10: excitation energy (eV) =    1026.9998
 Total energy for state  10:                  -421.11545073 au
    Multiplicity: Singlet
    Trans. Mom.: -0.0015 X   0.0001 Y   0.0002 Z
    Strength   :     0.0000561095
    D(    4) --> V( 1041) amplitude =  0.4481
    D(    4) --> V( 1043) amplitude =  0.8887

 Excited state  11: excitation energy (eV) =    1027.0482
 Total energy for state  11:                  -421.11367116 au
    Multiplicity: Singlet
    Trans. Mom.:  0.0003 X  -0.0001 Y  -0.0002 Z
    Strength   :     0.0000031165
    D(    4) --> V( 1041) amplitude =  0.8568
    D(    4) --> V( 1042) amplitude = -0.2449
    D(    4) --> V( 1043) amplitude = -0.4489

 Excited state  12: excitation energy (eV) =    1028.7516
 Total energy for state  12:                  -421.05107400 au
    Multiplicity: Singlet
    Trans. Mom.: -0.0006 X   0.0024 Y  -0.0000 Z
    Strength   :     0.0001553912
    D(    4) --> V( 1044) amplitude =  0.9957

 Excited state  13: excitation energy (eV) =    1028.8698
 Total energy for state  13:                  -421.04672954 au
    Multiplicity: Singlet
    Trans. Mom.: -0.0012 X   0.0018 Y  -0.0002 Z
    Strength   :     0.0001223732
    D(    4) --> V( 1045) amplitude =  0.9933

 Excited state  14: excitation energy (eV) =    1030.0355
 Total energy for state  14:                  -421.00389035 au
    Multiplicity: Singlet
    Trans. Mom.: -0.0047 X   0.0068 Y   0.0010 Z
    Strength   :     0.0017558531
    D(    4) --> V( 1046) amplitude =  0.9763

 Excited state  15: excitation energy (eV) =    1030.8112
 Total energy for state  15:                  -420.97538445 au
    Multiplicity: Singlet
    Trans. Mom.:  0.0161 X  -0.0225 Y  -0.0020 Z
    Strength   :     0.0194155936
    D(    4) --> V( 1047) amplitude = -0.2683
    D(    4) --> V( 1049) amplitude =  0.2920
    D(    4) --> V( 1051) amplitude =  0.8737

 Excited state  16: excitation energy (eV) =    1030.9487
 Total energy for state  16:                  -420.97033063 au
    Multiplicity: Singlet
    Trans. Mom.:  0.0045 X  -0.0059 Y  -0.0007 Z
    Strength   :     0.0014062244
    D(    4) --> V( 1047) amplitude =  0.9627
    D(    4) --> V( 1051) amplitude =  0.2421

 Excited state  17: excitation energy (eV) =    1032.4918
 Total energy for state  17:                  -420.91362374 au
    Multiplicity: Singlet
    Trans. Mom.:  0.0005 X   0.0003 Y   0.0006 Z
    Strength   :     0.0000167572
    D(    4) --> V( 1048) amplitude =  0.9987

 Excited state  18: excitation energy (eV) =    1034.4263
 Total energy for state  18:                  -420.84253089 au
    Multiplicity: Singlet
    Trans. Mom.:  0.0000 X   0.0006 Y  -0.0002 Z
    Strength   :     0.0000111020
    D(    4) --> V( 1049) amplitude =  0.9442
    D(    4) --> V( 1051) amplitude = -0.3047

 Excited state  19: excitation energy (eV) =    1034.5175
 Total energy for state  19:                  -420.83917923 au
    Multiplicity: Singlet
    Trans. Mom.: -0.0001 X  -0.0002 Y   0.0004 Z
    Strength   :     0.0000041313
    D(    4) --> V( 1050) amplitude =  0.9895

 Excited state  20: excitation energy (eV) =    1035.5149
 Total energy for state  20:                  -420.80252734 au
    Multiplicity: Singlet
    Trans. Mom.: -0.0008 X  -0.0016 Y  -0.0002 Z
    Strength   :     0.0000834415
    D(    4) --> V( 1052) amplitude =  0.4530
    D(    4) --> V( 1053) amplitude =  0.8471

 Excited state  21: excitation energy (eV) =    1035.6314
 Total energy for state  21:                  -420.79824560 au
    Multiplicity: Singlet
    Trans. Mom.: -0.0017 X  -0.0007 Y   0.0001 Z
    Strength   :     0.0000812008
    D(    4) --> V( 1052) amplitude =  0.7279
    D(    4) --> V( 1053) amplitude = -0.5099
    D(    4) --> V( 1054) amplitude =  0.3940

 Excited state  22: excitation energy (eV) =    1035.7525
 Total energy for state  22:                  -420.79379634 au
    Multiplicity: Singlet
    Trans. Mom.: -0.0015 X  -0.0024 Y   0.0000 Z
    Strength   :     0.0002003224
    D(    4) --> V( 1052) amplitude = -0.4844
    D(    4) --> V( 1054) amplitude =  0.8546

 Excited state  23: excitation energy (eV) =    1036.7753
 Total energy for state  23:                  -420.75620796 au
    Multiplicity: Singlet
    Trans. Mom.: -0.0043 X  -0.0029 Y  -0.0004 Z
    Strength   :     0.0006985900
    D(    4) --> V( 1054) amplitude = -0.2560
    D(    4) --> V( 1055) amplitude =  0.4649
    D(    4) --> V( 1059) amplitude =  0.7962

 Excited state  24: excitation energy (eV) =    1037.2050
 Total energy for state  24:                  -420.74041722 au
    Multiplicity: Singlet
    Trans. Mom.:  0.0017 X   0.0017 Y   0.0005 Z
    Strength   :     0.0001561078
    D(    4) --> V( 1055) amplitude =  0.8811
    D(    4) --> V( 1059) amplitude = -0.4247

 Excited state  25: excitation energy (eV) =    1037.7933
 Total energy for state  25:                  -420.71879845 au
    Multiplicity: Singlet
    Trans. Mom.: -0.0000 X   0.0001 Y   0.0002 Z
    Strength   :     0.0000012921
    D(    4) --> V( 1061) amplitude =  0.9901

 Excited state  26: excitation energy (eV) =    1038.0921
 Total energy for state  26:                  -420.70781720 au
    Multiplicity: Singlet
    Trans. Mom.: -0.0008 X  -0.0005 Y  -0.0000 Z
    Strength   :     0.0000228209
    D(    4) --> V( 1056) amplitude =  0.9800

 Excited state  27: excitation energy (eV) =    1039.7737
 Total energy for state  27:                  -420.64602032 au
    Multiplicity: Singlet
    Trans. Mom.:  0.0003 X   0.0004 Y  -0.0002 Z
    Strength   :     0.0000078684
    D(    4) --> V( 1057) amplitude =  0.9643
    D(    4) --> V( 1059) amplitude = -0.2433

 Excited state  28: excitation energy (eV) =    1040.2818
 Total energy for state  28:                  -420.62734556 au
    Multiplicity: Singlet
    Trans. Mom.: -0.0000 X   0.0001 Y   0.0000 Z
    Strength   :     0.0000002264
    D(    4) --> V( 1058) amplitude =  0.9976

 Excited state  29: excitation energy (eV) =    1042.1320
 Total energy for state  29:                  -420.55935301 au
    Multiplicity: Singlet
    Trans. Mom.: -0.0001 X   0.0001 Y  -0.0001 Z
    Strength   :     0.0000007159
    D(    4) --> V( 1060) amplitude =  0.9978

 Excited state  30: excitation energy (eV) =    1045.2277
 Total energy for state  30:                  -420.44558649 au
    Multiplicity: Singlet
    Trans. Mom.:  0.0002 X  -0.0001 Y  -0.0013 Z
    Strength   :     0.0000424170
    D(    4) --> V( 1074) amplitude =  0.7972
    D(    4) --> V( 1075) amplitude =  0.4944

 Excited state  31: excitation energy (eV) =    1045.9642
 Total energy for state  31:                  -420.41852114 au
    Multiplicity: Singlet
    Trans. Mom.:  0.0004 X  -0.0003 Y  -0.0004 Z
    Strength   :     0.0000126521
    D(    4) --> V( 1062) amplitude =  0.7154
    D(    4) --> V( 1063) amplitude =  0.6810

 Excited state  32: excitation energy (eV) =    1046.0245
 Total energy for state  32:                  -420.41630759 au
    Multiplicity: Singlet
    Trans. Mom.: -0.0000 X   0.0001 Y   0.0003 Z
    Strength   :     0.0000024560
    D(    4) --> V( 1062) amplitude = -0.6945
    D(    4) --> V( 1063) amplitude =  0.7112

 Excited state  33: excitation energy (eV) =    1046.1727
 Total energy for state  33:                  -420.41086075 au
    Multiplicity: Singlet
    Trans. Mom.: -0.0002 X   0.0007 Y  -0.0011 Z
    Strength   :     0.0000425455
    D(    4) --> V( 1064) amplitude =  0.9752

 Excited state  34: excitation energy (eV) =    1046.7536
 Total energy for state  34:                  -420.38951282 au
    Multiplicity: Singlet
    Trans. Mom.: -0.0006 X   0.0005 Y   0.0002 Z
    Strength   :     0.0000148438
    D(    4) --> V( 1065) amplitude =  0.8813
    D(    4) --> V( 1066) amplitude =  0.4503

 Excited state  35: excitation energy (eV) =    1046.9235
 Total energy for state  35:                  -420.38327018 au
    Multiplicity: Singlet
    Trans. Mom.: -0.0001 X   0.0007 Y   0.0002 Z
    Strength   :     0.0000135147
    D(    4) --> V( 1065) amplitude = -0.4430
    D(    4) --> V( 1066) amplitude =  0.8865

 Excited state  36: excitation energy (eV) =    1047.1077
 Total energy for state  36:                  -420.37649892 au
    Multiplicity: Singlet
    Trans. Mom.: -0.0003 X   0.0005 Y  -0.0010 Z
    Strength   :     0.0000333223
    D(    4) --> V( 1067) amplitude =  0.7068
    D(    4) --> V( 1068) amplitude = -0.6611
    D(    4) --> V( 1079) amplitude = -0.2141

 Excited state  37: excitation energy (eV) =    1047.1450
 Total energy for state  37:                  -420.37512917 au
    Multiplicity: Singlet
    Trans. Mom.:  0.0008 X   0.0002 Y   0.0003 Z
    Strength   :     0.0000225284
    D(    4) --> V( 1067) amplitude =  0.6906
    D(    4) --> V( 1068) amplitude =  0.7147

 Excited state  38: excitation energy (eV) =    1047.7140
 Total energy for state  38:                  -420.35421814 au
    Multiplicity: Singlet
    Trans. Mom.: -0.0014 X  -0.0016 Y   0.0047 Z
    Strength   :     0.0006689086
    D(    4) --> V( 1068) amplitude = -0.2131
    D(    4) --> V( 1079) amplitude =  0.8938

 Excited state  39: excitation energy (eV) =    1048.5601
 Total energy for state  39:                  -420.32312413 au
    Multiplicity: Singlet
    Trans. Mom.: -0.0007 X  -0.0003 Y  -0.0002 Z
    Strength   :     0.0000175728
    D(    4) --> V( 1069) amplitude =  0.5213
    D(    4) --> V( 1070) amplitude =  0.8072

 Excited state  40: excitation energy (eV) =    1048.6706
 Total energy for state  40:                  -420.31906349 au
    Multiplicity: Singlet
    Trans. Mom.: -0.0001 X  -0.0000 Y   0.0006 Z
    Strength   :     0.0000091890
    D(    4) --> V( 1069) amplitude =  0.8319
    D(    4) --> V( 1070) amplitude = -0.5361

 Excited state  41: excitation energy (eV) =    1049.3416
 Total energy for state  41:                  -420.29440507 au
    Multiplicity: Singlet
    Trans. Mom.:  0.0002 X   0.0001 Y   0.0013 Z
    Strength   :     0.0000413440
    D(    4) --> V( 1071) amplitude =  0.9703

 Excited state  42: excitation energy (eV) =    1049.7427
 Total energy for state  42:                  -420.27966346 au
    Multiplicity: Singlet
    Trans. Mom.: -0.0013 X  -0.0009 Y   0.0003 Z
    Strength   :     0.0000647347
    D(    4) --> V( 1072) amplitude =  0.9553

 Excited state  43: excitation energy (eV) =    1050.4193
 Total energy for state  43:                  -420.25479969 au
    Multiplicity: Singlet
    Trans. Mom.: -0.0010 X   0.0012 Y  -0.0006 Z
    Strength   :     0.0000767198
    D(    4) --> V( 1076) amplitude = -0.2548
    D(    4) --> V( 1082) amplitude =  0.6540
    D(    4) --> V( 1084) amplitude = -0.4989

 Excited state  44: excitation energy (eV) =    1050.6514
 Total energy for state  44:                  -420.24627179 au
    Multiplicity: Singlet
    Trans. Mom.:  0.0055 X   0.0040 Y   0.0007 Z
    Strength   :     0.0011882132
    D(    4) --> V( 1073) amplitude =  0.4410
    D(    4) --> V( 1075) amplitude =  0.2501
    D(    4) --> V( 1076) amplitude = -0.2221
    D(    4) --> V( 1077) amplitude = -0.2492
    D(    4) --> V( 1084) amplitude =  0.2287
    D(    4) --> V( 1085) amplitude =  0.6722

 Excited state  45: excitation energy (eV) =    1051.2081
 Total energy for state  45:                  -420.22581091 au
    Multiplicity: Singlet
    Trans. Mom.: -0.0022 X  -0.0009 Y   0.0003 Z
    Strength   :     0.0001461238
    D(    4) --> V( 1073) amplitude =  0.8779
    D(    4) --> V( 1085) amplitude = -0.2740

 Excited state  46: excitation energy (eV) =    1051.8694
 Total energy for state  46:                  -420.20151118 au
    Multiplicity: Singlet
    Trans. Mom.: -0.0010 X  -0.0007 Y   0.0004 Z
    Strength   :     0.0000436171
    D(    4) --> V( 1074) amplitude = -0.5620
    D(    4) --> V( 1075) amplitude =  0.7385
    D(    4) --> V( 1076) amplitude =  0.2362

 Excited state  47: excitation energy (eV) =    1052.4801
 Total energy for state  47:                  -420.17906818 au
    Multiplicity: Singlet
    Trans. Mom.:  0.0003 X   0.0005 Y  -0.0001 Z
    Strength   :     0.0000090927
    D(    4) --> V( 1076) amplitude =  0.6875
    D(    4) --> V( 1077) amplitude = -0.5492
    D(    4) --> V( 1078) amplitude =  0.4379

 Excited state  48: excitation energy (eV) =    1052.6030
 Total energy for state  48:                  -420.17455056 au
    Multiplicity: Singlet
    Trans. Mom.:  0.0016 X   0.0006 Y   0.0011 Z
    Strength   :     0.0001040470
    D(    4) --> V( 1077) amplitude =  0.6438
    D(    4) --> V( 1078) amplitude =  0.6877

 Excited state  49: excitation energy (eV) =    1052.8085
 Total energy for state  49:                  -420.16699724 au
    Multiplicity: Singlet
    Trans. Mom.: -0.0015 X  -0.0019 Y   0.0007 Z
    Strength   :     0.0001638523
    D(    4) --> V( 1075) amplitude =  0.2410
    D(    4) --> V( 1076) amplitude = -0.5094
    D(    4) --> V( 1077) amplitude = -0.3662
    D(    4) --> V( 1078) amplitude =  0.5230
    D(    4) --> V( 1085) amplitude = -0.4173

 Excited state  50: excitation energy (eV) =    1053.9241
 Total energy for state  50:                  -420.12600283 au
    Multiplicity: Singlet
    Trans. Mom.: -0.0005 X  -0.0002 Y   0.0007 Z
    Strength   :     0.0000187238
    D(    4) --> V( 1080) amplitude =  0.9801

 Excited state  51: excitation energy (eV) =    1055.1591
 Total energy for state  51:                  -420.08061591 au
    Multiplicity: Singlet
    Trans. Mom.:  0.0001 X   0.0003 Y   0.0002 Z
    Strength   :     0.0000035778
    D(    4) --> V( 1081) amplitude =  0.9989

 Excited state  52: excitation energy (eV) =    1055.8398
 Total energy for state  52:                  -420.05559924 au
    Multiplicity: Singlet
    Trans. Mom.:  0.0005 X   0.0001 Y   0.0070 Z
    Strength   :     0.0012591171
    D(    4) --> V( 1082) amplitude =  0.4872
    D(    4) --> V( 1083) amplitude =  0.3340
    D(    4) --> V( 1084) amplitude =  0.6009
    D(    4) --> V( 1085) amplitude = -0.2137
    D(    4) --> V( 1091) amplitude =  0.4130

 Excited state  53: excitation energy (eV) =    1056.1309
 Total energy for state  53:                  -420.04490370 au
    Multiplicity: Singlet
    Trans. Mom.:  0.0001 X  -0.0002 Y   0.0014 Z
    Strength   :     0.0000492740
    D(    4) --> V( 1082) amplitude = -0.3306
    D(    4) --> V( 1083) amplitude =  0.8641
    D(    4) --> V( 1084) amplitude = -0.3395

 Excited state  54: excitation energy (eV) =    1056.8644
 Total energy for state  54:                  -420.01794701 au
    Multiplicity: Singlet
    Trans. Mom.:  0.0011 X  -0.0003 Y   0.0091 Z
    Strength   :     0.0021655038
    D(    4) --> V( 1083) amplitude = -0.3113
    D(    4) --> V( 1084) amplitude = -0.3311
    D(    4) --> V( 1086) amplitude = -0.5056
    D(    4) --> V( 1090) amplitude = -0.2302
    D(    4) --> V( 1091) amplitude =  0.6586

 Excited state  55: excitation energy (eV) =    1057.7214
 Total energy for state  55:                  -419.98645254 au
    Multiplicity: Singlet
    Trans. Mom.:  0.0008 X  -0.0015 Y   0.0054 Z
    Strength   :     0.0008180812
    D(    4) --> V( 1085) amplitude =  0.2186
    D(    4) --> V( 1086) amplitude =  0.7978
    D(    4) --> V( 1091) amplitude =  0.5069

 Excited state  56: excitation energy (eV) =    1059.3455
 Total energy for state  56:                  -419.92676738 au
    Multiplicity: Singlet
    Trans. Mom.: -0.0012 X   0.0001 Y  -0.0005 Z
    Strength   :     0.0000472860
    D(    4) --> V( 1087) amplitude =  0.9740

 Excited state  57: excitation energy (eV) =    1059.9316
 Total energy for state  57:                  -419.90523020 au
    Multiplicity: Singlet
    Trans. Mom.: -0.0032 X   0.0040 Y   0.0011 Z
    Strength   :     0.0007210457
    D(    4) --> V( 1092) amplitude =  0.9382

 Excited state  58: excitation energy (eV) =    1061.2390
 Total energy for state  58:                  -419.85718463 au
    Multiplicity: Singlet
    Trans. Mom.:  0.0002 X  -0.0001 Y  -0.0003 Z
    Strength   :     0.0000037048
    D(    4) --> V( 1088) amplitude =  0.9862

 Excited state  59: excitation energy (eV) =    1061.9652
 Total energy for state  59:                  -419.83049622 au
    Multiplicity: Singlet
    Trans. Mom.:  0.0009 X   0.0000 Y   0.0002 Z
    Strength   :     0.0000227853
    D(    4) --> V( 1089) amplitude =  0.9689
    D(    4) --> V( 1092) amplitude = -0.2124

 Excited state  60: excitation energy (eV) =    1062.9209
 Total energy for state  60:                  -419.79537340 au
    Multiplicity: Singlet
    Trans. Mom.: -0.0000 X   0.0001 Y   0.0008 Z
    Strength   :     0.0000154792
    D(    4) --> V( 1090) amplitude =  0.9427
    D(    4) --> V( 1091) amplitude =  0.3297

 Excited state  61: excitation energy (eV) =    1072.3874
 Total energy for state  61:                  -419.44748912 au
    Multiplicity: Singlet
    Trans. Mom.: -0.0002 X  -0.0002 Y  -0.0000 Z
    Strength   :     0.0000014917
    D(    4) --> V( 1093) amplitude =  1.0000

 Excited state  62: excitation energy (eV) =    1078.2091
 Total energy for state  62:                  -419.23354360 au
    Multiplicity: Singlet
    Trans. Mom.: -0.0011 X  -0.0010 Y   0.0001 Z
    Strength   :     0.0000559285
    D(    4) --> V( 1094) amplitude =  0.9990

 Excited state  63: excitation energy (eV) =    1080.3768
 Total energy for state  63:                  -419.15388370 au
    Multiplicity: Singlet
    Trans. Mom.: -0.0009 X  -0.0003 Y   0.0002 Z
    Strength   :     0.0000260783
    D(    4) --> V( 1095) amplitude =  0.9995

 Excited state  64: excitation energy (eV) =    1081.7613
 Total energy for state  64:                  -419.10300378 au
    Multiplicity: Singlet
    Trans. Mom.: -0.0121 X  -0.0086 Y  -0.0001 Z
    Strength   :     0.0058392674
    D(    4) --> V( 1096) amplitude = -0.2399
    D(    4) --> V( 1097) amplitude =  0.2859
    D(    4) --> V( 1099) amplitude = -0.4213
    D(    4) --> V( 1100) amplitude =  0.8211

 Excited state  65: excitation energy (eV) =    1082.5194
 Total energy for state  65:                  -419.07514212 au
    Multiplicity: Singlet
    Trans. Mom.: -0.0020 X  -0.0009 Y   0.0003 Z
    Strength   :     0.0001344270
    D(    4) --> V( 1096) amplitude =  0.9454
    D(    4) --> V( 1097) amplitude =  0.2847

 Excited state  66: excitation energy (eV) =    1082.7653
 Total energy for state  66:                  -419.06610702 au
    Multiplicity: Singlet
    Trans. Mom.:  0.0038 X   0.0025 Y   0.0000 Z
    Strength   :     0.0005431154
    D(    4) --> V( 1096) amplitude = -0.2193
    D(    4) --> V( 1097) amplitude =  0.9149
    D(    4) --> V( 1100) amplitude = -0.2981

 Excited state  67: excitation energy (eV) =    1085.9940
 Total energy for state  67:                  -418.94745618 au
    Multiplicity: Singlet
    Trans. Mom.:  0.0008 X  -0.0007 Y  -0.0003 Z
    Strength   :     0.0000358737
    D(    4) --> V( 1098) amplitude =  0.9990

 Excited state  68: excitation energy (eV) =    1088.3379
 Total energy for state  68:                  -418.86131939 au
    Multiplicity: Singlet
    Trans. Mom.: -0.0010 X  -0.0011 Y  -0.0002 Z
    Strength   :     0.0000571045
    D(    4) --> V( 1099) amplitude =  0.8890
    D(    4) --> V( 1100) amplitude =  0.4572

 Excited state  69: excitation energy (eV) =    1090.7673
 Total energy for state  69:                  -418.77204053 au
    Multiplicity: Singlet
    Trans. Mom.:  0.0022 X  -0.0031 Y  -0.0001 Z
    Strength   :     0.0003884224
    D(    4) --> V( 1101) amplitude =  0.9834

 Excited state  70: excitation energy (eV) =    1091.0574
 Total energy for state  70:                  -418.76137750 au
    Multiplicity: Singlet
    Trans. Mom.:  0.0127 X  -0.0184 Y  -0.0013 Z
    Strength   :     0.0133668695
    D(    4) --> V( 1104) amplitude =  0.9811

 Excited state  71: excitation energy (eV) =    1092.2349
 Total energy for state  71:                  -418.71810632 au
    Multiplicity: Singlet
    Trans. Mom.:  0.0002 X  -0.0008 Y   0.0001 Z
    Strength   :     0.0000196994
    D(    4) --> V( 1102) amplitude =  0.9979

 Excited state  72: excitation energy (eV) =    1092.7356
 Total energy for state  72:                  -418.69970371 au
    Multiplicity: Singlet
    Trans. Mom.:  0.0003 X  -0.0010 Y   0.0002 Z
    Strength   :     0.0000325768
    D(    4) --> V( 1103) amplitude =  0.9974

 Excited state  73: excitation energy (eV) =    1106.0198
 Total energy for state  73:                  -418.21152059 au
    Multiplicity: Singlet
    Trans. Mom.:  0.0004 X   0.0013 Y  -0.0158 Z
    Strength   :     0.0068310298
    D(    4) --> V( 1108) amplitude =  0.8884
    D(    4) --> V( 1113) amplitude =  0.2878

 Excited state  74: excitation energy (eV) =    1111.4513
 Total energy for state  74:                  -418.01191678 au
    Multiplicity: Singlet
    Trans. Mom.:  0.0003 X   0.0000 Y   0.0005 Z
    Strength   :     0.0000086225
    D(    4) --> V( 1105) amplitude =  0.9960

 Excited state  75: excitation energy (eV) =    1113.5940
 Total energy for state  75:                  -417.93317139 au
    Multiplicity: Singlet
    Trans. Mom.:  0.0016 X   0.0013 Y  -0.0003 Z
    Strength   :     0.0001194075
    D(    4) --> V( 1106) amplitude =  0.9728

 Excited state  76: excitation energy (eV) =    1114.0501
 Total energy for state  76:                  -417.91641319 au
    Multiplicity: Singlet
    Trans. Mom.: -0.0000 X  -0.0001 Y   0.0001 Z
    Strength   :     0.0000006220
    D(    4) --> V( 1107) amplitude =  0.9868

 Excited state  77: excitation energy (eV) =    1114.8020
 Total energy for state  77:                  -417.88877859 au
    Multiplicity: Singlet
    Trans. Mom.:  0.0025 X   0.0011 Y  -0.0001 Z
    Strength   :     0.0001976689
    D(    4) --> V( 1109) amplitude =  0.9601

 Excited state  78: excitation energy (eV) =    1115.0272
 Total energy for state  78:                  -417.88050508 au
    Multiplicity: Singlet
    Trans. Mom.:  0.0003 X   0.0005 Y  -0.0005 Z
    Strength   :     0.0000185288
    D(    4) --> V( 1110) amplitude =  0.9724

 Excited state  79: excitation energy (eV) =    1115.4231
 Total energy for state  79:                  -417.86595400 au
    Multiplicity: Singlet
    Trans. Mom.:  0.0050 X   0.0020 Y  -0.0001 Z
    Strength   :     0.0007858515
    D(    4) --> V( 1109) amplitude = -0.2466
    D(    4) --> V( 1111) amplitude =  0.6778
    D(    4) --> V( 1112) amplitude = -0.3852
    D(    4) --> V( 1113) amplitude =  0.5618

 Excited state  80: excitation energy (eV) =    1115.9254
 Total energy for state  80:                  -417.84749494 au
    Multiplicity: Singlet
    Trans. Mom.:  0.0005 X   0.0007 Y  -0.0008 Z
    Strength   :     0.0000394707
    D(    4) --> V( 1108) amplitude = -0.2902
    D(    4) --> V( 1111) amplitude = -0.6616
    D(    4) --> V( 1113) amplitude =  0.6705

 Excited state  81: excitation energy (eV) =    1116.1668
 Total energy for state  81:                  -417.83862265 au
    Multiplicity: Singlet
    Trans. Mom.: -0.0006 X  -0.0001 Y  -0.0004 Z
    Strength   :     0.0000166317
    D(    4) --> V( 1111) amplitude =  0.2316
    D(    4) --> V( 1112) amplitude =  0.9066
    D(    4) --> V( 1113) amplitude =  0.3331

 Excited state  82: excitation energy (eV) =    1118.4054
 Total energy for state  82:                  -417.75635880 au
    Multiplicity: Singlet
    Trans. Mom.:  0.0005 X   0.0002 Y   0.0002 Z
    Strength   :     0.0000084478
    D(    4) --> V( 1114) amplitude =  0.9992

 ---------------------------------------------------
  SETman timing summary (seconds)
  CPU time            120768.66s
  System time              0.00s
  Wall time            30251.65s
================================================================================
                             Excited State Analysis
================================================================================

  Ground State (Reference) :
  -------------------------
    NOs
      Occupation of frontier NOs:
         0.0000   0.0000   2.0000   2.0000
      Number of electrons: 60.000000
      Number of unpaired electrons: n_u = -0.00000, n_u,nl =  0.00000
    
    Mulliken Population Analysis (State DM)
    Atom      Charge (e)
    --------------------
     1 O       -0.731320
     2 H        0.314145
     3 H        0.391390
     4 O       -0.642273
     5 H        0.346990
     6 H        0.287659
     7 O       -0.653965
     8 H        0.370052
     9 H        0.321602
    10 O       -0.750149
    11 H        0.333894
    12 H        0.397286
    13 O       -0.690396
    14 H        0.275901
    15 H        0.402945
    16 O       -0.609748
    17 H        0.330984
    18 H        0.305004
    --------------------
    Sum:       -0.000000
    
    Multipole moment analysis of the density matrix
      Molecular charge:                      -0.000000
      Number of electrons:                   60.000000
        Center of electronic charge [Ang]: [  0.000964,  -0.002828,  -0.000178]
      Total nuclear charge:                  60.000000
        Center of nuclear charge [Ang]:    [ -0.010157,  -0.008383,  -0.005033]
      Dipole moment [D]:                     3.846109
        Cartesian components [D]:          [ -3.204872,  -1.601083,  -1.399243]
      RMS size of the density [Ang]:         2.971438
        Cartesian components [Ang]:        [  1.904424,   1.846918,   1.338472]
    

  ----------------------------------------------------------------------------
                  Analysis of Unrelaxed Density Matrices
  ----------------------------------------------------------------------------

  Singlet 1 :
  -------------------------
    NOs
      Occupation of frontier NOs:
         0.0000   1.0000   1.0000   2.0000
      Number of electrons: 60.000000
      Number of unpaired electrons: n_u =  2.00000, n_u,nl =  2.00000
      NO participation ratio (PR_NO):  2.000000
    
    NDOs
      Leading detachment eigenvalues:
        -1.0000  -0.0000
      Leading attachment eigenvalues:
         1.0000   0.0000
      Number of detached / attached electrons: p_D =  1.0000, p_A =  1.0000
      Number of involved orbitals: PR_D =  1.000000, PR_A =  1.000000
    
    Mulliken Population Analysis (State/Difference DM)
    Atom      Charge (e)              h+              e-           Del q
    --------------------------------------------------------------------
     1 O       -0.507389        0.991474       -0.767543        0.223931
     2 H        0.251392        0.004432       -0.067185       -0.062753
     3 H        0.323594        0.004093       -0.071888       -0.067796
     4 O       -0.679097       -0.000000       -0.036823       -0.036824
     5 H        0.333259        0.000001       -0.013732       -0.013731
     6 H        0.283806        0.000000       -0.003852       -0.003852
     7 O       -0.657029        0.000000       -0.003064       -0.003064
     8 H        0.369831        0.000000       -0.000221       -0.000221
     9 H        0.321525        0.000000       -0.000077       -0.000077
    10 O       -0.763599       -0.000001       -0.013449       -0.013449
    11 H        0.329958       -0.000000       -0.003936       -0.003937
    12 H        0.393313        0.000000       -0.003974       -0.003973
    13 O       -0.697140        0.000000       -0.006744       -0.006744
    14 H        0.275822        0.000000       -0.000079       -0.000079
    15 H        0.402732       -0.000000       -0.000213       -0.000213
    16 O       -0.614483       -0.000000       -0.004735       -0.004735
    17 H        0.329938        0.000001       -0.001047       -0.001047
    18 H        0.303567        0.000000       -0.001437       -0.001437
    --------------------------------------------------------------------
    Sum:       -0.000000        1.000000       -1.000000       -0.000000
    
    Multipole moment analysis of the density matrix
      Molecular charge:                      -0.000000
      Number of electrons:                   60.000000
        Center of electronic charge [Ang]: [  0.001440,  -0.002948,  -0.001035]
      Total nuclear charge:                  60.000000
        Center of nuclear charge [Ang]:    [ -0.010157,  -0.008383,  -0.005033]
      Dipole moment [D]:                     3.866574
        Cartesian components [D]:          [ -3.341976,  -1.566446,  -1.152318]
      RMS size of the density [Ang]:         2.974770
        Cartesian components [Ang]:        [  1.906354,   1.849707,   1.339273]
    
    Exciton analysis of the difference density matrix
      <r_h> [Ang]:                  [ -0.544464,   0.150350,   0.807401]
      <r_e> [Ang]:                  [ -0.515920,   0.143139,   0.755992]
      |<r_e - r_h>| [Ang]:            0.059242
      Hole size [Ang]:                0.122782
        Cartesian components [Ang]: [  0.070892,   0.070895,   0.070876]
      Electron size [Ang]:            1.147473
        Cartesian components [Ang]: [  0.690463,   0.791092,   0.462739]

  Singlet 2 :
  -------------------------
    NOs
      Occupation of frontier NOs:
         0.0000   1.0000   1.0000   2.0000
      Number of electrons: 60.000000
      Number of unpaired electrons: n_u =  2.00000, n_u,nl =  2.00000
      NO participation ratio (PR_NO):  2.000000
    
    NDOs
      Leading detachment eigenvalues:
        -1.0000  -0.0000
      Leading attachment eigenvalues:
         1.0000   0.0000
      Number of detached / attached electrons: p_D =  1.0000, p_A =  1.0000
      Number of involved orbitals: PR_D =  1.000000, PR_A =  1.000000
    
    Mulliken Population Analysis (State/Difference DM)
    Atom      Charge (e)              h+              e-           Del q
    --------------------------------------------------------------------
     1 O        0.250397        0.991474       -0.009757        0.981717
     2 H        0.318302        0.004432       -0.000274        0.004157
     3 H        0.394373        0.004093       -0.001110        0.002983
     4 O       -0.642476       -0.000000       -0.000202       -0.000203
     5 H        0.346945        0.000001       -0.000047       -0.000045
     6 H        0.287640        0.000000       -0.000019       -0.000019
     7 O       -0.683998        0.000000       -0.030033       -0.030032
     8 H        0.368673        0.000000       -0.001379       -0.001379
     9 H        0.320341        0.000000       -0.001261       -0.001261
    10 O       -0.876878       -0.000001       -0.126727       -0.126728
    11 H        0.329636       -0.000000       -0.004258       -0.004259
    12 H        0.383293        0.000000       -0.013994       -0.013993
    13 O       -1.456157        0.000000       -0.765761       -0.765761
    14 H        0.253347        0.000000       -0.022554       -0.022554
    15 H        0.380668       -0.000000       -0.022276       -0.022276
    16 O       -0.610020       -0.000000       -0.000272       -0.000272
    17 H        0.330930        0.000001       -0.000055       -0.000055
    18 H        0.304983        0.000000       -0.000021       -0.000021
    --------------------------------------------------------------------
    Sum:        0.000000        1.000000       -1.000000        0.000000
    
    Multipole moment analysis of the density matrix
      Molecular charge:                      0.000000
      Number of electrons:                   60.000000
        Center of electronic charge [Ang]: [  0.048836,  -0.038162,  -0.017246]
      Total nuclear charge:                  60.000000
        Center of nuclear charge [Ang]:    [ -0.010157,  -0.008383,  -0.005033]
      Dipole moment [D]:                     19.367038
        Cartesian components [D]:          [-17.001268,   8.582073,   3.519529]
      RMS size of the density [Ang]:         2.999984
        Cartesian components [Ang]:        [  1.932351,   1.865159,   1.336827]
    
    Exciton analysis of the difference density matrix
      <r_h> [Ang]:                  [ -0.544464,   0.150350,   0.807401]
      <r_e> [Ang]:                  [  2.327867,  -1.969725,  -0.216660]
      |<r_e - r_h>| [Ang]:            3.713988
      Hole size [Ang]:                0.122782
        Cartesian components [Ang]: [  0.070892,   0.070895,   0.070876]
      Electron size [Ang]:            1.454506
        Cartesian components [Ang]: [  1.206002,   0.545379,   0.603082]

  Singlet 3 :
  -------------------------
    NOs
      Occupation of frontier NOs:
         0.0000   1.0000   1.0000   2.0000
      Number of electrons: 60.000000
      Number of unpaired electrons: n_u =  2.00000, n_u,nl =  2.00000
      NO participation ratio (PR_NO):  2.000000
    
    NDOs
      Leading detachment eigenvalues:
        -1.0000  -0.0000
      Leading attachment eigenvalues:
         1.0000   0.0000
      Number of detached / attached electrons: p_D =  1.0000, p_A =  1.0000
      Number of involved orbitals: PR_D =  1.000000, PR_A =  1.000000
    
    Mulliken Population Analysis (State/Difference DM)
    Atom      Charge (e)              h+              e-           Del q
    --------------------------------------------------------------------
     1 O        0.255843        0.991474       -0.004311        0.987163
     2 H        0.309918        0.004432       -0.008658       -0.004227
     3 H        0.394019        0.004093       -0.001464        0.002629
     4 O       -0.642533       -0.000000       -0.000259       -0.000260
     5 H        0.346967        0.000001       -0.000025       -0.000023
     6 H        0.287631        0.000000       -0.000027       -0.000027
     7 O       -0.653987        0.000000       -0.000022       -0.000022
     8 H        0.370036        0.000000       -0.000016       -0.000016
     9 H        0.321585        0.000000       -0.000018       -0.000018
    10 O       -0.750313       -0.000001       -0.000163       -0.000164
    11 H        0.333869       -0.000000       -0.000025       -0.000026
    12 H        0.397261        0.000000       -0.000025       -0.000025
    13 O       -0.690961        0.000000       -0.000565       -0.000565
    14 H        0.275896        0.000000       -0.000005       -0.000005
    15 H        0.402920       -0.000000       -0.000024       -0.000025
    16 O       -1.566561       -0.000000       -0.956813       -0.956813
    17 H        0.308443        0.000001       -0.022542       -0.022541
    18 H        0.299967        0.000000       -0.005037       -0.005036
    --------------------------------------------------------------------
    Sum:       -0.000000        1.000000       -1.000000       -0.000000
    
    Multipole moment analysis of the density matrix
      Molecular charge:                      -0.000000
      Number of electrons:                   60.000000
        Center of electronic charge [Ang]: [ -0.041691,   0.023892,   0.012688]
      Total nuclear charge:                  60.000000
        Center of nuclear charge [Ang]:    [ -0.010157,  -0.008383,  -0.005033]
      Dipole moment [D]:                     13.971235
        Cartesian components [D]:          [  9.088085,  -9.301625,  -5.107046]
      RMS size of the density [Ang]:         3.011995
        Cartesian components [Ang]:        [  1.945307,   1.861235,   1.350444]
    
    Exciton analysis of the difference density matrix
      <r_h> [Ang]:                  [ -0.544464,   0.150350,   0.807401]
      <r_e> [Ang]:                  [ -3.103788,   1.753560,   1.579344]
      |<r_e - r_h>| [Ang]:            3.117100
      Hole size [Ang]:                0.122782
        Cartesian components [Ang]: [  0.070892,   0.070895,   0.070876]
      Electron size [Ang]:            0.700610
        Cartesian components [Ang]: [  0.464172,   0.414368,   0.322022]

  Singlet 4 :
  -------------------------
    NOs
      Occupation of frontier NOs:
         0.0000   1.0000   1.0000   2.0000
      Number of electrons: 60.000000
      Number of unpaired electrons: n_u =  2.00000, n_u,nl =  2.00000
      NO participation ratio (PR_NO):  2.000000
    
    NDOs
      Leading detachment eigenvalues:
        -1.0000  -0.0000
      Leading attachment eigenvalues:
         1.0000   0.0000
      Number of detached / attached electrons: p_D =  1.0000, p_A =  1.0000
      Number of involved orbitals: PR_D =  1.000000, PR_A =  1.000000
    
    Mulliken Population Analysis (State/Difference DM)
    Atom      Charge (e)              h+              e-           Del q
    --------------------------------------------------------------------
     1 O        0.220058        0.991474       -0.040096        0.951378
     2 H        0.311901        0.004432       -0.006675       -0.002244
     3 H        0.393871        0.004093       -0.001611        0.002481
     4 O       -0.642361       -0.000000       -0.000088       -0.000088
     5 H        0.346968        0.000001       -0.000023       -0.000022
     6 H        0.287640        0.000000       -0.000019       -0.000019
     7 O       -0.656391        0.000000       -0.002426       -0.002426
     8 H        0.369961        0.000000       -0.000091       -0.000091
     9 H        0.321463        0.000000       -0.000139       -0.000139
    10 O       -0.750403       -0.000001       -0.000253       -0.000253
    11 H        0.333865       -0.000000       -0.000029       -0.000029
    12 H        0.397187        0.000000       -0.000100       -0.000099
    13 O       -0.690623        0.000000       -0.000227       -0.000227
    14 H        0.275823        0.000000       -0.000078       -0.000078
    15 H        0.402854       -0.000000       -0.000090       -0.000091
    16 O       -1.476395       -0.000000       -0.866647       -0.866647
    17 H        0.289251        0.000001       -0.041734       -0.041734
    18 H        0.265331        0.000000       -0.039673       -0.039672
    --------------------------------------------------------------------
    Sum:        0.000000        1.000000       -1.000000        0.000000
    
    Multipole moment analysis of the density matrix
      Molecular charge:                      0.000000
      Number of electrons:                   60.000000
        Center of electronic charge [Ang]: [ -0.040550,   0.022921,   0.011924]
      Total nuclear charge:                  60.000000
        Center of nuclear charge [Ang]:    [ -0.010157,  -0.008383,  -0.005033]
      Dipole moment [D]:                     13.490583
        Cartesian components [D]:          [  8.759252,  -9.021598,  -4.886931]
      RMS size of the density [Ang]:         3.011076
        Cartesian components [Ang]:        [  1.944579,   1.860741,   1.350125]
    
    Exciton analysis of the difference density matrix
      <r_h> [Ang]:                  [ -0.544464,   0.150350,   0.807401]
      <r_e> [Ang]:                  [ -3.035327,   1.695260,   1.533518]
      |<r_e - r_h>| [Ang]:            3.019667
      Hole size [Ang]:                0.122782
        Cartesian components [Ang]: [  0.070892,   0.070895,   0.070876]
      Electron size [Ang]:            0.955765
        Cartesian components [Ang]: [  0.678385,   0.509605,   0.439979]

  Singlet 5 :
  -------------------------
    NOs
      Occupation of frontier NOs:
         0.0000   1.0000   1.0000   2.0000
      Number of electrons: 60.000000
      Number of unpaired electrons: n_u =  2.00000, n_u,nl =  2.00000
      NO participation ratio (PR_NO):  2.000000
    
    NDOs
      Leading detachment eigenvalues:
        -1.0000  -0.0000
      Leading attachment eigenvalues:
         1.0000   0.0000
      Number of detached / attached electrons: p_D =  1.0000, p_A =  1.0000
      Number of involved orbitals: PR_D =  1.000000, PR_A =  1.000000
    
    Mulliken Population Analysis (State/Difference DM)
    Atom      Charge (e)              h+              e-           Del q
    --------------------------------------------------------------------
     1 O        0.257692        0.991474       -0.002462        0.989012
     2 H        0.318180        0.004432       -0.000397        0.004035
     3 H        0.395154        0.004093       -0.000328        0.003764
     4 O       -0.642308       -0.000000       -0.000034       -0.000035
     5 H        0.346970        0.000001       -0.000022       -0.000020
     6 H        0.287646        0.000000       -0.000013       -0.000013
     7 O       -1.390412        0.000000       -0.736447       -0.736447
     8 H        0.354546        0.000000       -0.015506       -0.015506
     9 H        0.286329        0.000000       -0.035273       -0.035273
    10 O       -0.853120       -0.000001       -0.102970       -0.102971
    11 H        0.329040       -0.000000       -0.004855       -0.004855
    12 H        0.374091        0.000000       -0.023196       -0.023196
    13 O       -0.754602        0.000000       -0.064206       -0.064206
    14 H        0.274035        0.000000       -0.001866       -0.001866
    15 H        0.392200       -0.000000       -0.010744       -0.010745
    16 O       -0.611281       -0.000000       -0.001532       -0.001532
    17 H        0.330933        0.000001       -0.000052       -0.000051
    18 H        0.304907        0.000000       -0.000097       -0.000097
    --------------------------------------------------------------------
    Sum:        0.000000        1.000000       -1.000000        0.000000
    
    Multipole moment analysis of the density matrix
      Molecular charge:                      0.000000
      Number of electrons:                   60.000000
        Center of electronic charge [Ang]: [  0.005222,  -0.014906,  -0.045991]
      Total nuclear charge:                  60.000000
        Center of nuclear charge [Ang]:    [ -0.010157,  -0.008383,  -0.005033]
      Dipole moment [D]:                     12.747729
        Cartesian components [D]:          [ -4.431896,   1.879658,  11.803803]
      RMS size of the density [Ang]:         2.986953
        Cartesian components [Ang]:        [  1.907747,   1.851797,   1.361335]
    
    Exciton analysis of the difference density matrix
      <r_h> [Ang]:                  [ -0.544464,   0.150350,   0.807401]
      <r_e> [Ang]:                  [ -0.289005,  -0.574320,  -1.941399]
      |<r_e - r_h>| [Ang]:            2.854173
      Hole size [Ang]:                0.122782
        Cartesian components [Ang]: [  0.070892,   0.070895,   0.070876]
      Electron size [Ang]:            1.578419
        Cartesian components [Ang]: [  0.989785,   0.890751,   0.847523]

  Singlet 6 :
  -------------------------
    NOs
      Occupation of frontier NOs:
         0.0000   1.0000   1.0000   2.0000
      Number of electrons: 60.000000
      Number of unpaired electrons: n_u =  2.00000, n_u,nl =  2.00000
      NO participation ratio (PR_NO):  2.000000
    
    NDOs
      Leading detachment eigenvalues:
        -1.0000  -0.0000
      Leading attachment eigenvalues:
         1.0000   0.0000
      Number of detached / attached electrons: p_D =  1.0000, p_A =  1.0000
      Number of involved orbitals: PR_D =  1.000000, PR_A =  1.000000
    
    Mulliken Population Analysis (State/Difference DM)
    Atom      Charge (e)              h+              e-           Del q
    --------------------------------------------------------------------
     1 O        0.254005        0.991474       -0.006150        0.985324
     2 H        0.316490        0.004432       -0.002087        0.002345
     3 H        0.394624        0.004093       -0.000859        0.003233
     4 O       -0.642331       -0.000000       -0.000057       -0.000058
     5 H        0.346973        0.000001       -0.000019       -0.000017
     6 H        0.287649        0.000000       -0.000009       -0.000009
     7 O       -0.658839        0.000000       -0.004874       -0.004874
     8 H        0.369970        0.000000       -0.000082       -0.000082
     9 H        0.321369        0.000000       -0.000234       -0.000233
    10 O       -0.753843       -0.000001       -0.003692       -0.003693
    11 H        0.333487       -0.000000       -0.000407       -0.000407
    12 H        0.396462        0.000000       -0.000824       -0.000824
    13 O       -0.695231        0.000000       -0.004835       -0.004835
    14 H        0.275828        0.000000       -0.000072       -0.000072
    15 H        0.402745       -0.000000       -0.000200       -0.000200
    16 O       -1.176505       -0.000000       -0.566756       -0.566756
    17 H        0.073715        0.000001       -0.257270       -0.257269
    18 H        0.153433        0.000000       -0.151571       -0.151571
    --------------------------------------------------------------------
    Sum:       -0.000000        1.000000       -1.000000       -0.000000
    
    Multipole moment analysis of the density matrix
      Molecular charge:                      -0.000000
      Number of electrons:                   60.000000
        Center of electronic charge [Ang]: [ -0.038212,   0.024687,   0.010964]
      Total nuclear charge:                  60.000000
        Center of nuclear charge [Ang]:    [ -0.010157,  -0.008383,  -0.005033]
      Dipole moment [D]:                     13.321537
        Cartesian components [D]:          [  8.085366,  -9.530732,  -4.610354]
      RMS size of the density [Ang]:         3.010126
        Cartesian components [Ang]:        [  1.941445,   1.862617,   1.349929]
    
    Exciton analysis of the difference density matrix
      <r_h> [Ang]:                  [ -0.544464,   0.150350,   0.807401]
      <r_e> [Ang]:                  [ -2.895028,   1.801258,   1.475936]
      |<r_e - r_h>| [Ang]:            2.949167
      Hole size [Ang]:                0.122782
        Cartesian components [Ang]: [  0.070892,   0.070895,   0.070876]
      Electron size [Ang]:            1.094340
        Cartesian components [Ang]: [  0.741919,   0.559743,   0.577775]

  Singlet 7 :
  -------------------------
    NOs
      Occupation of frontier NOs:
         0.0000   1.0000   1.0000   2.0000
      Number of electrons: 60.000000
      Number of unpaired electrons: n_u =  2.00000, n_u,nl =  2.00000
      NO participation ratio (PR_NO):  2.000000
    
    NDOs
      Leading detachment eigenvalues:
        -1.0000  -0.0000
      Leading attachment eigenvalues:
         1.0000   0.0000
      Number of detached / attached electrons: p_D =  1.0000, p_A =  1.0000
      Number of involved orbitals: PR_D =  1.000000, PR_A =  1.000000
    
    Mulliken Population Analysis (State/Difference DM)
    Atom      Charge (e)              h+              e-           Del q
    --------------------------------------------------------------------
     1 O        0.257995        0.991474       -0.002159        0.989314
     2 H        0.318078        0.004432       -0.000499        0.003933
     3 H        0.394708        0.004093       -0.000775        0.003317
     4 O       -0.642311       -0.000000       -0.000038       -0.000038
     5 H        0.346988        0.000001       -0.000003       -0.000002
     6 H        0.287653        0.000000       -0.000006       -0.000006
     7 O       -0.766671        0.000000       -0.112706       -0.112706
     8 H        0.367945        0.000000       -0.002107       -0.002107
     9 H        0.319073        0.000000       -0.002529       -0.002529
    10 O       -0.827190       -0.000001       -0.077039       -0.077040
    11 H        0.329396       -0.000000       -0.004498       -0.004499
    12 H        0.381206        0.000000       -0.016080       -0.016080
    13 O       -1.452466        0.000000       -0.762070       -0.762070
    14 H        0.271207        0.000000       -0.004694       -0.004694
    15 H        0.398478       -0.000000       -0.004466       -0.004467
    16 O       -0.615965       -0.000000       -0.006216       -0.006216
    17 H        0.328525        0.000001       -0.002460       -0.002459
    18 H        0.303350        0.000000       -0.001653       -0.001653
    --------------------------------------------------------------------
    Sum:       -0.000000        1.000000       -1.000000       -0.000000
    
    Multipole moment analysis of the density matrix
      Molecular charge:                      -0.000000
      Number of electrons:                   60.000000
        Center of electronic charge [Ang]: [  0.046140,  -0.034452,  -0.019458]
      Total nuclear charge:                  60.000000
        Center of nuclear charge [Ang]:    [ -0.010157,  -0.008383,  -0.005033]
      Dipole moment [D]:                     18.356363
        Cartesian components [D]:          [-16.224391,   7.512907,   4.157090]
      RMS size of the density [Ang]:         2.999767
        Cartesian components [Ang]:        [  1.932365,   1.862967,   1.339374]
    
    Exciton analysis of the difference density matrix
      <r_h> [Ang]:                  [ -0.544464,   0.150350,   0.807401]
      <r_e> [Ang]:                  [  2.166126,  -1.747131,  -0.349396]
      |<r_e - r_h>| [Ang]:            3.505127
      Hole size [Ang]:                0.122782
        Cartesian components [Ang]: [  0.070892,   0.070895,   0.070876]
      Electron size [Ang]:            1.868158
        Cartesian components [Ang]: [  1.472816,   0.786352,   0.838138]

  Singlet 8 :
  -------------------------
    NOs
      Occupation of frontier NOs:
         0.0000   1.0000   1.0000   2.0000
      Number of electrons: 60.000000
      Number of unpaired electrons: n_u =  2.00000, n_u,nl =  2.00000
      NO participation ratio (PR_NO):  2.000000
    
    NDOs
      Leading detachment eigenvalues:
        -1.0000  -0.0000
      Leading attachment eigenvalues:
         1.0000   0.0000
      Number of detached / attached electrons: p_D =  1.0000, p_A =  1.0000
      Number of involved orbitals: PR_D =  1.000000, PR_A =  1.000000
    
    Mulliken Population Analysis (State/Difference DM)
    Atom      Charge (e)              h+              e-           Del q
    --------------------------------------------------------------------
     1 O        0.254274        0.991474       -0.005880        0.985594
     2 H        0.317472        0.004432       -0.001105        0.003327
     3 H        0.392486        0.004093       -0.002997        0.001096
     4 O       -0.642288       -0.000000       -0.000015       -0.000015
     5 H        0.346986        0.000001       -0.000006       -0.000004
     6 H        0.287653        0.000000       -0.000006       -0.000006
     7 O       -0.970687        0.000000       -0.316722       -0.316722
     8 H        0.363647        0.000000       -0.006405       -0.006405
     9 H        0.297755        0.000000       -0.023847       -0.023847
    10 O       -1.031655       -0.000001       -0.281504       -0.281505
    11 H        0.286479       -0.000000       -0.047415       -0.047415
    12 H        0.349260        0.000000       -0.048027       -0.048026
    13 O       -0.921523        0.000000       -0.231127       -0.231127
    14 H        0.264320        0.000000       -0.011581       -0.011581
    15 H        0.383585       -0.000000       -0.019359       -0.019359
    16 O       -0.612214       -0.000000       -0.002465       -0.002465
    17 H        0.330040        0.000001       -0.000945       -0.000945
    18 H        0.304409        0.000000       -0.000595       -0.000594
    --------------------------------------------------------------------
    Sum:       -0.000000        1.000000       -1.000000       -0.000000
    
    Multipole moment analysis of the density matrix
      Molecular charge:                      -0.000000
      Number of electrons:                   60.000000
        Center of electronic charge [Ang]: [  0.019068,  -0.029482,  -0.032370]
      Total nuclear charge:                  60.000000
        Center of nuclear charge [Ang]:    [ -0.010157,  -0.008383,  -0.005033]
      Dipole moment [D]:                     13.037332
        Cartesian components [D]:          [ -8.422293,   6.080465,   7.878132]
      RMS size of the density [Ang]:         2.990557
        Cartesian components [Ang]:        [  1.913672,   1.861268,   1.347951]
    
    Exciton analysis of the difference density matrix
      <r_h> [Ang]:                  [ -0.544464,   0.150350,   0.807401]
      <r_e> [Ang]:                  [  0.541773,  -1.448904,  -1.124096]
      |<r_e - r_h>| [Ang]:            2.732802
      Hole size [Ang]:                0.122782
        Cartesian components [Ang]: [  0.070892,   0.070895,   0.070876]
      Electron size [Ang]:            2.074885
        Cartesian components [Ang]: [  1.465726,   1.082910,   0.992018]

  Singlet 9 :
  -------------------------
    NOs
      Occupation of frontier NOs:
         0.0000   1.0000   1.0000   2.0000
      Number of electrons: 60.000000
      Number of unpaired electrons: n_u =  2.00000, n_u,nl =  2.00000
      NO participation ratio (PR_NO):  2.000000
    
    NDOs
      Leading detachment eigenvalues:
        -1.0000  -0.0000
      Leading attachment eigenvalues:
         1.0000   0.0000
      Number of detached / attached electrons: p_D =  1.0000, p_A =  1.0000
      Number of involved orbitals: PR_D =  1.000000, PR_A =  1.000000
    
    Mulliken Population Analysis (State/Difference DM)
    Atom      Charge (e)              h+              e-           Del q
    --------------------------------------------------------------------
     1 O        0.255510        0.991474       -0.004644        0.986830
     2 H        0.317176        0.004432       -0.001401        0.003031
     3 H        0.394520        0.004093       -0.000963        0.003130
     4 O       -0.642305       -0.000000       -0.000032       -0.000032
     5 H        0.346970        0.000001       -0.000021       -0.000020
     6 H        0.287650        0.000000       -0.000009       -0.000009
     7 O       -0.653992        0.000000       -0.000027       -0.000026
     8 H        0.370048        0.000000       -0.000004       -0.000004
     9 H        0.321593        0.000000       -0.000009       -0.000009
    10 O       -0.750189       -0.000001       -0.000039       -0.000039
    11 H        0.333889       -0.000000       -0.000005       -0.000006
    12 H        0.397282        0.000000       -0.000005       -0.000004
    13 O       -0.690522        0.000000       -0.000126       -0.000126
    14 H        0.275889        0.000000       -0.000012       -0.000012
    15 H        0.402932       -0.000000       -0.000013       -0.000013
    16 O       -1.475974       -0.000000       -0.866225       -0.866225
    17 H        0.270758        0.000001       -0.060228       -0.060227
    18 H        0.238765        0.000000       -0.066239       -0.066239
    --------------------------------------------------------------------
    Sum:       -0.000000        1.000000       -1.000000       -0.000000
    
    Multipole moment analysis of the density matrix
      Molecular charge:                      -0.000000
      Number of electrons:                   60.000000
        Center of electronic charge [Ang]: [ -0.040943,   0.024947,   0.011742]
      Total nuclear charge:                  60.000000
        Center of nuclear charge [Ang]:    [ -0.010157,  -0.008383,  -0.005033]
      Dipole moment [D]:                     13.941265
        Cartesian components [D]:          [  8.872467,  -9.605555,  -4.834407]
      RMS size of the density [Ang]:         3.011303
        Cartesian components [Ang]:        [  1.944012,   1.861982,   1.349735]
    
    Exciton analysis of the difference density matrix
      <r_h> [Ang]:                  [ -0.544464,   0.150350,   0.807401]
      <r_e> [Ang]:                  [ -3.058898,   1.816836,   1.522583]
      |<r_e - r_h>| [Ang]:            3.100167
      Hole size [Ang]:                0.122782
        Cartesian components [Ang]: [  0.070892,   0.070895,   0.070876]
      Electron size [Ang]:            0.682341
        Cartesian components [Ang]: [  0.431537,   0.340228,   0.404486]

  Singlet 10 :
  -------------------------
    NOs
      Occupation of frontier NOs:
         0.0000   1.0000   1.0000   2.0000
      Number of electrons: 60.000000
      Number of unpaired electrons: n_u =  2.00000, n_u,nl =  2.00000
      NO participation ratio (PR_NO):  2.000000
    
    NDOs
      Leading detachment eigenvalues:
        -1.0000  -0.0000
      Leading attachment eigenvalues:
         1.0000   0.0000
      Number of detached / attached electrons: p_D =  1.0000, p_A =  1.0000
      Number of involved orbitals: PR_D =  1.000000, PR_A =  1.000000
    
    Mulliken Population Analysis (State/Difference DM)
    Atom      Charge (e)              h+              e-           Del q
    --------------------------------------------------------------------
     1 O        0.253631        0.991474       -0.006523        0.984951
     2 H        0.317415        0.004432       -0.001161        0.003270
     3 H        0.394595        0.004093       -0.000888        0.003205
     4 O       -1.127712       -0.000000       -0.485438       -0.485439
     5 H        0.163555        0.000001       -0.183437       -0.183435
     6 H        0.104012        0.000000       -0.183647       -0.183647
     7 O       -0.666925        0.000000       -0.012960       -0.012960
     8 H        0.369468        0.000000       -0.000584       -0.000583
     9 H        0.318939        0.000000       -0.002663       -0.002663
    10 O       -0.778179       -0.000001       -0.028029       -0.028030
    11 H        0.326604       -0.000000       -0.007291       -0.007291
    12 H        0.394033        0.000000       -0.003253       -0.003253
    13 O       -0.760585        0.000000       -0.070189       -0.070189
    14 H        0.269181        0.000000       -0.006720       -0.006720
    15 H        0.395959       -0.000000       -0.006986       -0.006986
    16 O       -0.609922       -0.000000       -0.000173       -0.000173
    17 H        0.330943        0.000001       -0.000043       -0.000042
    18 H        0.304988        0.000000       -0.000016       -0.000016
    --------------------------------------------------------------------
    Sum:        0.000000        1.000000       -1.000000        0.000000
    
    Multipole moment analysis of the density matrix
      Molecular charge:                      0.000000
      Number of electrons:                   60.000000
        Center of electronic charge [Ang]: [  0.034307,   0.025677,  -0.002199]
      Total nuclear charge:                  60.000000
        Center of nuclear charge [Ang]:    [ -0.010157,  -0.008383,  -0.005033]
      Dipole moment [D]:                     16.162340
        Cartesian components [D]:          [-12.814025,  -9.816036,  -0.816976]
      RMS size of the density [Ang]:         2.995318
        Cartesian components [Ang]:        [  1.914397,   1.873897,   1.339971]
    
    Exciton analysis of the difference density matrix
      <r_h> [Ang]:                  [ -0.544464,   0.150350,   0.807401]
      <r_e> [Ang]:                  [  1.456107,   1.860657,   0.686176]
      |<r_e - r_h>| [Ang]:            2.634792
      Hole size [Ang]:                0.122782
        Cartesian components [Ang]: [  0.070892,   0.070895,   0.070876]
      Electron size [Ang]:            1.895192
        Cartesian components [Ang]: [  0.732665,   1.621024,   0.653633]

  Singlet 11 :
  -------------------------
    NOs
      Occupation of frontier NOs:
         0.0000   1.0000   1.0000   2.0000
      Number of electrons: 60.000000
      Number of unpaired electrons: n_u =  2.00000, n_u,nl =  2.00000
      NO participation ratio (PR_NO):  2.000000
    
    NDOs
      Leading detachment eigenvalues:
        -1.0000  -0.0000
      Leading attachment eigenvalues:
         1.0000   0.0000
      Number of detached / attached electrons: p_D =  1.0000, p_A =  1.0000
      Number of involved orbitals: PR_D =  1.000000, PR_A =  1.000000
    
    Mulliken Population Analysis (State/Difference DM)
    Atom      Charge (e)              h+              e-           Del q
    --------------------------------------------------------------------
     1 O        0.258261        0.991474       -0.001893        0.989580
     2 H        0.318287        0.004432       -0.000289        0.004142
     3 H        0.394679        0.004093       -0.000804        0.003288
     4 O       -0.720601       -0.000000       -0.078327       -0.078328
     5 H        0.316000        0.000001       -0.030992       -0.030990
     6 H        0.259419        0.000000       -0.028240       -0.028240
     7 O       -0.739057        0.000000       -0.085093       -0.085092
     8 H        0.366631        0.000000       -0.003421       -0.003421
     9 H        0.301624        0.000000       -0.019978       -0.019978
    10 O       -0.920039       -0.000001       -0.169889       -0.169890
    11 H        0.293758       -0.000000       -0.040136       -0.040137
    12 H        0.380902        0.000000       -0.016385       -0.016385
    13 O       -1.131312        0.000000       -0.440916       -0.440916
    14 H        0.235699        0.000000       -0.040201       -0.040201
    15 H        0.359771       -0.000000       -0.043173       -0.043174
    16 O       -0.609956       -0.000000       -0.000207       -0.000207
    17 H        0.330954        0.000001       -0.000031       -0.000030
    18 H        0.304980        0.000000       -0.000024       -0.000023
    --------------------------------------------------------------------
    Sum:        0.000000        1.000000       -1.000000        0.000000
    
    Multipole moment analysis of the density matrix
      Molecular charge:                      0.000000
      Number of electrons:                   60.000000
        Center of electronic charge [Ang]: [  0.037026,  -0.026600,  -0.019221]
      Total nuclear charge:                  60.000000
        Center of nuclear charge [Ang]:    [ -0.010157,  -0.008383,  -0.005033]
      Dipole moment [D]:                     15.138590
        Cartesian components [D]:          [-13.597770,   5.249792,   4.088672]
      RMS size of the density [Ang]:         2.996648
        Cartesian components [Ang]:        [  1.923478,   1.866557,   1.340186]
    
    Exciton analysis of the difference density matrix
      <r_h> [Ang]:                  [ -0.544464,   0.150350,   0.807401]
      <r_e> [Ang]:                  [  1.619279,  -1.275963,  -0.335152]
      |<r_e - r_h>| [Ang]:            2.832239
      Hole size [Ang]:                0.122782
        Cartesian components [Ang]: [  0.070892,   0.070895,   0.070876]
      Electron size [Ang]:            2.407729
        Cartesian components [Ang]: [  1.462096,   1.678454,   0.917728]

  Singlet 12 :
  -------------------------
    NOs
      Occupation of frontier NOs:
         0.0000   1.0000   1.0000   2.0000
      Number of electrons: 60.000000
      Number of unpaired electrons: n_u =  2.00000, n_u,nl =  2.00000
      NO participation ratio (PR_NO):  2.000000
    
    NDOs
      Leading detachment eigenvalues:
        -1.0000  -0.0000
      Leading attachment eigenvalues:
         1.0000   0.0000
      Number of detached / attached electrons: p_D =  1.0000, p_A =  1.0000
      Number of involved orbitals: PR_D =  1.000000, PR_A =  1.000000
    
    Mulliken Population Analysis (State/Difference DM)
    Atom      Charge (e)              h+              e-           Del q
    --------------------------------------------------------------------
     1 O        0.253665        0.991474       -0.006489        0.984985
     2 H        0.317620        0.004432       -0.000956        0.003475
     3 H        0.389401        0.004093       -0.006082       -0.001989
     4 O       -0.642310       -0.000000       -0.000036       -0.000037
     5 H        0.346980        0.000001       -0.000011       -0.000010
     6 H        0.287642        0.000000       -0.000017       -0.000016
     7 O       -0.654075        0.000000       -0.000110       -0.000110
     8 H        0.370035        0.000000       -0.000017       -0.000017
     9 H        0.321570        0.000000       -0.000032       -0.000032
    10 O       -0.768870       -0.000001       -0.018720       -0.018721
    11 H        0.330711       -0.000000       -0.003183       -0.003184
    12 H        0.395966        0.000000       -0.001321       -0.001321
    13 O       -0.702615        0.000000       -0.012219       -0.012219
    14 H        0.275020        0.000000       -0.000881       -0.000881
[...]
 941  H 9   f 7      0.00024  -0.00037   0.00004   0.00097   0.00081
 942  H 9   g 1     -0.00001  -0.00001  -0.00001   0.00009   0.00009
 943  H 9   g 2      0.00002   0.00007  -0.00001  -0.00017   0.00020
 944  H 9   g 3     -0.00003   0.00002   0.00005  -0.00006  -0.00012
 945  H 9   g 4     -0.00001   0.00007  -0.00004  -0.00015  -0.00009
 946  H 9   g 5     -0.00001   0.00004   0.00001  -0.00012   0.00002
 947  H 9   g 6      0.00001  -0.00003   0.00002   0.00005  -0.00002
 948  H 9   g 7      0.00001   0.00005  -0.00002  -0.00010   0.00019
 949  H 9   g 8      0.00002  -0.00004  -0.00004   0.00015   0.00015
 950  H 9   g 9     -0.00002  -0.00004   0.00004   0.00005  -0.00018
 951  H 10  s       -0.00086   0.00242  -0.00151  -0.00077   0.00283
 952  H 10  s       -0.00500   0.00424  -0.00463   0.00140   0.00249
 953  H 10  s        0.04014   0.01601  -0.06278   0.00174   0.16235
 954  H 10  s        0.12824  -0.19485   0.04276   0.15059   0.11369
 955  H 10  s        0.02050  -0.03089  -0.07078   0.18525  -0.35045
 956  H 10  px       0.00051  -0.00136   0.00084   0.00038  -0.00061
 957  H 10  py      -0.00002   0.00010  -0.00001  -0.00016  -0.00020
 958  H 10  pz       0.00000  -0.00003  -0.00001   0.00010   0.00010
 959  H 10  px      -0.00124   0.00380  -0.00293  -0.00101   0.00045
 960  H 10  py      -0.00013  -0.00002  -0.00083   0.00075   0.00164
 961  H 10  pz       0.00009   0.00005  -0.00086   0.00011   0.00060
 962  H 10  px       0.03243  -0.03542   0.00443   0.01163   0.05068
 963  H 10  py       0.00180   0.00028   0.00090  -0.00082   0.01801
 964  H 10  pz      -0.00487   0.00862   0.00053  -0.00629   0.01324
 965  H 10  px       0.03452   0.01022  -0.01201  -0.01230   0.05866
 966  H 10  py       0.00881  -0.02674   0.02190   0.01443   0.05226
 967  H 10  pz      -0.01818   0.02914   0.01431  -0.04304  -0.00584
 968  H 10  d 1     -0.00003   0.00016   0.00004  -0.00033  -0.00065
 969  H 10  d 2      0.00005  -0.00006   0.00015  -0.00018   0.00002
 970  H 10  d 3     -0.00002   0.00016  -0.00005   0.00002   0.00018
 971  H 10  d 4      0.00015  -0.00045   0.00037   0.00017  -0.00054
 972  H 10  d 5     -0.00013  -0.00020   0.00025   0.00010  -0.00029
 973  H 10  d 1      0.00036  -0.00009  -0.00093   0.00152   0.00695
 974  H 10  d 2     -0.00022   0.00027  -0.00067   0.00070   0.00012
 975  H 10  d 3     -0.00108  -0.00058   0.00112  -0.00013  -0.00406
 976  H 10  d 4     -0.00129   0.00380  -0.00253  -0.00148   0.00529
 977  H 10  d 5      0.00250   0.00078  -0.00259  -0.00053   0.00663
 978  H 10  d 1      0.00314  -0.00535   0.01021  -0.00194   0.01508
 979  H 10  d 2     -0.00034   0.00264  -0.00161  -0.00192   0.00648
 980  H 10  d 3     -0.00748   0.01119  -0.00960   0.00073   0.00033
 981  H 10  d 4     -0.00616   0.00650   0.01263  -0.01362   0.00054
 982  H 10  d 5      0.01105  -0.01853   0.01869   0.00003  -0.00492
 983  H 10  f 1     -0.00001   0.00011  -0.00015  -0.00001   0.00028
 984  H 10  f 2      0.00004  -0.00019   0.00018  -0.00001  -0.00018
 985  H 10  f 3      0.00004  -0.00011   0.00008   0.00004  -0.00006
 986  H 10  f 4     -0.00003   0.00002  -0.00000  -0.00002  -0.00011
 987  H 10  f 5     -0.00017  -0.00006   0.00028  -0.00002  -0.00081
 988  H 10  f 6     -0.00000  -0.00001  -0.00004   0.00005   0.00012
 989  H 10  f 7      0.00017   0.00005  -0.00023  -0.00003   0.00090
 990  H 10  f 1      0.00077  -0.00087   0.00132   0.00045   0.00566
 991  H 10  f 2     -0.00032   0.00155  -0.00136  -0.00014   0.00162
 992  H 10  f 3     -0.00033   0.00051  -0.00040  -0.00033  -0.00183
 993  H 10  f 4      0.00137  -0.00265   0.00020   0.00216  -0.00210
 994  H 10  f 5     -0.00123   0.00173  -0.00225   0.00058   0.00161
 995  H 10  f 6     -0.00162   0.00358  -0.00042  -0.00285   0.00344
 996  H 10  f 7      0.00155  -0.00167   0.00198  -0.00065  -0.00199
 997  H 10  g 1      0.00006  -0.00004   0.00009   0.00004   0.00049
 998  H 10  g 2     -0.00001   0.00006  -0.00003  -0.00002  -0.00001
 999  H 10  g 3     -0.00002  -0.00002   0.00000  -0.00002  -0.00026
1000  H 10  g 4      0.00001  -0.00002   0.00001   0.00001   0.00002
1001  H 10  g 5      0.00008  -0.00007   0.00006  -0.00002   0.00004
1002  H 10  g 6      0.00014  -0.00029   0.00000   0.00024  -0.00022
1003  H 10  g 7     -0.00011   0.00011  -0.00012   0.00004   0.00002
1004  H 10  g 8     -0.00014   0.00031  -0.00006  -0.00020   0.00033
1005  H 10  g 9      0.00012  -0.00010   0.00012  -0.00007  -0.00003
1006  O 6   s       -0.00122  -0.00154  -0.00094  -0.00131   0.00012
1007  O 6   s        0.05163   0.05795   0.02622   0.04585  -0.00541
1008  O 6   s        0.00217   0.00228   0.00045   0.00120  -0.00039
1009  O 6   s        0.05035   0.05417   0.02029   0.04142  -0.00834
1010  O 6   s        0.08733   0.09192   0.09398   0.12727   0.04088
1011  O 6   s        0.36596   0.49073   0.29007   0.58068   0.04339
1012  O 6   px       0.01711   0.01446   0.01788   0.00702   0.00686
1013  O 6   py       0.00260   0.01284   0.00611   0.00978  -0.00608
1014  O 6   pz      -0.02202  -0.02058   0.00668  -0.01432   0.01081
1015  O 6   px       0.02684   0.02220   0.02670   0.01012   0.00974
1016  O 6   py       0.00220   0.01992   0.00956   0.01507  -0.01035
1017  O 6   pz      -0.03643  -0.03313   0.01170  -0.02150   0.01720
1018  O 6   px       0.04397   0.03592   0.05716   0.02057   0.02910
1019  O 6   py       0.00830   0.03059   0.01709   0.02701  -0.01152
1020  O 6   pz      -0.04787  -0.04496   0.01807  -0.04064   0.02816
1021  O 6   px       0.12707   0.13892   0.10852   0.09154   0.03244
1022  O 6   py       0.00240   0.03927   0.04929   0.06583   0.00610
1023  O 6   pz      -0.08865  -0.10830  -0.02438  -0.08566   0.04093
1024  O 6   px      -0.02441  -0.03062   0.10818   0.03197   0.12328
1025  O 6   py       0.04815   0.04787   0.01095   0.05184  -0.01689
1026  O 6   pz      -0.06229  -0.07069   0.09253  -0.11138   0.08914
1027  O 6   d 1      0.00004   0.00012   0.00005   0.00005  -0.00005
1028  O 6   d 2     -0.00003  -0.00016  -0.00016  -0.00006   0.00002
1029  O 6   d 3      0.00014   0.00015   0.00011   0.00002   0.00000
1030  O 6   d 4     -0.00007  -0.00001  -0.00003   0.00011  -0.00001
1031  O 6   d 5      0.00035   0.00040   0.00008   0.00013  -0.00013
1032  O 6   d 1      0.00009  -0.00031  -0.00013  -0.00004   0.00012
1033  O 6   d 2     -0.00014   0.00080   0.00105   0.00071  -0.00016
1034  O 6   d 3     -0.00093  -0.00145  -0.00046  -0.00085   0.00059
1035  O 6   d 4     -0.00093  -0.00154  -0.00059  -0.00201   0.00016
1036  O 6   d 5     -0.00175  -0.00252  -0.00095  -0.00112   0.00064
1037  O 6   d 1      0.00222   0.00244   0.00360   0.00121   0.00208
1038  O 6   d 2      0.00047  -0.00336  -0.00461  -0.00515   0.00074
1039  O 6   d 3      0.00284   0.00430  -0.00102   0.00482  -0.00525
1040  O 6   d 4      0.00129   0.00340   0.00259   0.00848   0.00180
1041  O 6   d 5      0.01115   0.01279   0.00888   0.00680   0.00195
1042  O 6   d 1      0.01654   0.00536   0.00751   0.00053   0.00757
1043  O 6   d 2     -0.00980  -0.01755  -0.01267  -0.02355   0.00299
1044  O 6   d 3      0.01699   0.02240  -0.01078   0.02012  -0.02411
1045  O 6   d 4      0.00082   0.00192   0.00084   0.02107   0.00902
1046  O 6   d 5      0.01791   0.02487   0.02397   0.02166   0.01071
1047  O 6   f 1      0.00011   0.00006  -0.00005   0.00001  -0.00005
1048  O 6   f 2     -0.00008  -0.00007  -0.00009  -0.00008  -0.00006
1049  O 6   f 3      0.00007   0.00003  -0.00002  -0.00004   0.00002
1050  O 6   f 4      0.00012   0.00019   0.00009   0.00015  -0.00008
1051  O 6   f 5      0.00001   0.00001   0.00017   0.00001   0.00013
1052  O 6   f 6     -0.00011  -0.00017  -0.00002  -0.00016   0.00009
1053  O 6   f 7     -0.00008  -0.00011  -0.00004  -0.00008  -0.00001
1054  O 6   f 1     -0.00027  -0.00005   0.00069   0.00016   0.00050
1055  O 6   f 2      0.00019   0.00024   0.00048   0.00046   0.00034
1056  O 6   f 3     -0.00028  -0.00002   0.00008   0.00053  -0.00028
1057  O 6   f 4     -0.00094  -0.00109  -0.00066  -0.00108   0.00032
1058  O 6   f 5     -0.00028  -0.00027  -0.00103  -0.00034  -0.00077
1059  O 6   f 6      0.00048   0.00085   0.00058   0.00093  -0.00018
1060  O 6   f 7      0.00077   0.00080   0.00077   0.00064   0.00043
1061  O 6   f 1      0.00538   0.00346   0.00430   0.00176   0.00307
1062  O 6   f 2     -0.00176  -0.00080   0.00038   0.00371   0.00224
1063  O 6   f 3      0.00569   0.01037   0.00401   0.01072  -0.00339
1064  O 6   f 4     -0.01477  -0.01772  -0.00255  -0.01254   0.00590
1065  O 6   f 5     -0.00118  -0.00358  -0.00825  -0.00634  -0.00681
1066  O 6   f 6      0.00514   0.00764   0.00252   0.00898  -0.00133
1067  O 6   f 7      0.00650   0.01056   0.00797   0.00753  -0.00004
1068  O 6   g 1     -0.00001   0.00002   0.00002   0.00001  -0.00000
1069  O 6   g 2      0.00002   0.00001   0.00006  -0.00001   0.00002
1070  O 6   g 3     -0.00007  -0.00007   0.00004  -0.00002   0.00007
1071  O 6   g 4      0.00006   0.00009   0.00002   0.00004  -0.00001
1072  O 6   g 5     -0.00007  -0.00008  -0.00001   0.00003   0.00002
1073  O 6   g 6      0.00007   0.00008  -0.00011   0.00002  -0.00014
1074  O 6   g 7     -0.00002   0.00002   0.00002  -0.00000   0.00001
1075  O 6   g 8     -0.00007  -0.00007   0.00007  -0.00006   0.00006
1076  O 6   g 9     -0.00001  -0.00005   0.00002  -0.00003   0.00006
1077  O 6   g 1      0.00072   0.00063   0.00100   0.00047   0.00059
1078  O 6   g 2      0.00029   0.00055   0.00014   0.00076  -0.00005
1079  O 6   g 3      0.00053   0.00046  -0.00083  -0.00023  -0.00103
1080  O 6   g 4     -0.00146  -0.00221  -0.00085  -0.00198   0.00053
1081  O 6   g 5      0.00206   0.00227   0.00088   0.00074  -0.00041
1082  O 6   g 6     -0.00157  -0.00173   0.00025  -0.00069   0.00121
1083  O 6   g 7     -0.00064  -0.00136  -0.00141  -0.00098  -0.00022
1084  O 6   g 8      0.00131   0.00137  -0.00005   0.00098  -0.00055
1085  O 6   g 9      0.00104   0.00161   0.00082   0.00101  -0.00037
1086  O 6   h 1      0.00013   0.00015   0.00019   0.00009   0.00007
1087  O 6   h 2      0.00010   0.00012   0.00004   0.00010  -0.00001
1088  O 6   h 3     -0.00004  -0.00007  -0.00012  -0.00003  -0.00005
1089  O 6   h 4     -0.00014  -0.00012   0.00004   0.00001   0.00010
1090  O 6   h 5      0.00027   0.00035   0.00011   0.00025  -0.00009
1091  O 6   h 6     -0.00013  -0.00009   0.00007   0.00004   0.00009
1092  O 6   h 7      0.00008   0.00009   0.00007  -0.00009  -0.00004
1093  O 6   h 8     -0.00009  -0.00003  -0.00000   0.00002  -0.00004
1094  O 6   h 9     -0.00011  -0.00011  -0.00009   0.00003   0.00000
1095  O 6   h10      0.00016   0.00016   0.00002   0.00013  -0.00004
1096  O 6   h11      0.00014   0.00020   0.00008   0.00011  -0.00007
1097  H 11  s       -0.00250  -0.00382  -0.00341  -0.00332  -0.00045
1098  H 11  s       -0.00376  -0.00655   0.00060  -0.00417   0.00413
1099  H 11  s       -0.12122  -0.15863  -0.15205  -0.12824  -0.04655
1100  H 11  s        0.00970   0.03011  -0.03618  -0.12787  -0.13901
1101  H 11  s       -0.16876  -0.30754  -0.66243  -0.14759  -0.24005
1102  H 11  px      -0.00131  -0.00154  -0.00162  -0.00100  -0.00036
1103  H 11  py      -0.00034  -0.00056  -0.00059  -0.00035  -0.00003
1104  H 11  pz      -0.00028  -0.00034  -0.00035  -0.00022  -0.00011
1105  H 11  px       0.00159   0.00253   0.00141   0.00115  -0.00068
1106  H 11  py       0.00046   0.00137   0.00134   0.00092  -0.00032
1107  H 11  pz      -0.00062  -0.00052   0.00017  -0.00039   0.00038
1108  H 11  px       0.01534   0.01786   0.01749   0.02104   0.01430
1109  H 11  py       0.00653   0.01038   0.00314   0.00905  -0.00159
1110  H 11  pz       0.00020   0.00094   0.01244  -0.00339   0.00743
1111  H 11  px      -0.01044  -0.01735   0.00784   0.04069   0.04678
1112  H 11  py       0.00126   0.02005   0.02803   0.02762   0.01120
1113  H 11  pz       0.00417   0.00716   0.01617   0.01143   0.01877
1114  H 11  d 1      0.00023   0.00021   0.00012   0.00021   0.00005
1115  H 11  d 2     -0.00018  -0.00014  -0.00001  -0.00014  -0.00014
1116  H 11  d 3     -0.00007  -0.00001  -0.00005  -0.00007  -0.00011
1117  H 11  d 4      0.00006  -0.00002   0.00024  -0.00015   0.00023
1118  H 11  d 5      0.00003   0.00006   0.00042   0.00013   0.00026
1119  H 11  d 1     -0.00301  -0.00406  -0.00201  -0.00309   0.00027
1120  H 11  d 2      0.00073   0.00030  -0.00046   0.00051   0.00046
1121  H 11  d 3      0.00231   0.00256   0.00151   0.00240   0.00060
1122  H 11  d 4      0.00006   0.00008  -0.00347   0.00112  -0.00265
1123  H 11  d 5     -0.00266  -0.00323  -0.00454  -0.00280  -0.00236
1124  H 11  d 1      0.00057  -0.00565  -0.00497  -0.00608   0.00060
1125  H 11  d 2     -0.00001  -0.00091  -0.00428   0.00000  -0.00410
1126  H 11  d 3     -0.00358  -0.00548   0.00042   0.00031   0.00528
1127  H 11  d 4      0.00544   0.00599  -0.00596   0.00422  -0.00862
1128  H 11  d 5      0.00530   0.01209   0.00350   0.00194  -0.00909
1129  H 11  f 1      0.00038   0.00044   0.00022   0.00027   0.00001
1130  H 11  f 2      0.00019   0.00018   0.00002   0.00012  -0.00003
1131  H 11  f 3     -0.00012  -0.00016  -0.00010  -0.00008   0.00000
1132  H 11  f 4     -0.00007  -0.00016  -0.00018  -0.00013   0.00002
1133  H 11  f 5     -0.00036  -0.00045  -0.00013  -0.00039   0.00005
1134  H 11  f 6      0.00021   0.00029   0.00032   0.00014   0.00012
1135  H 11  f 7      0.00039   0.00054   0.00045   0.00036   0.00009
1136  H 11  f 1      0.00023   0.00094   0.00095   0.00127  -0.00006
1137  H 11  f 2     -0.00095  -0.00020   0.00149  -0.00051   0.00088
1138  H 11  f 3     -0.00040  -0.00053   0.00019  -0.00080   0.00030
1139  H 11  f 4      0.00101   0.00158  -0.00129   0.00166  -0.00218
1140  H 11  f 5      0.00038   0.00077   0.00013  -0.00034  -0.00062
1141  H 11  f 6     -0.00178  -0.00266   0.00079  -0.00215   0.00211
1142  H 11  f 7     -0.00208  -0.00379  -0.00090  -0.00146   0.00197
1143  H 11  g 1     -0.00005  -0.00008  -0.00011  -0.00012  -0.00003
1144  H 11  g 2     -0.00001  -0.00006  -0.00014   0.00001  -0.00005
1145  H 11  g 3      0.00011   0.00012  -0.00002   0.00012  -0.00006
1146  H 11  g 4      0.00000   0.00000   0.00002   0.00000   0.00004
1147  H 11  g 5     -0.00007  -0.00008   0.00004  -0.00013   0.00005
1148  H 11  g 6     -0.00008  -0.00011   0.00017  -0.00013   0.00019
1149  H 11  g 7      0.00003   0.00004  -0.00001   0.00011   0.00000
1150  H 11  g 8      0.00011   0.00019  -0.00007   0.00015  -0.00017
1151  H 11  g 9      0.00014   0.00023   0.00001   0.00008  -0.00015
1152  H 12  s       -0.00361  -0.00537  -0.00108  -0.00514   0.00207
1153  H 12  s       -0.00612  -0.00902  -0.00121  -0.00486   0.00233
1154  H 12  s       -0.12064  -0.18227  -0.06112  -0.17784   0.06340
1155  H 12  s        0.04746   0.06144   0.01609  -0.07743  -0.02928
1156  H 12  s       -0.55577  -0.67784   0.18806  -0.53331   0.47227
1157  H 12  px       0.00013  -0.00003  -0.00007  -0.00009   0.00009
1158  H 12  py      -0.00084  -0.00082   0.00011  -0.00051   0.00031
1159  H 12  pz       0.00164   0.00211   0.00025   0.00172  -0.00088
1160  H 12  px       0.00050   0.00135   0.00121   0.00098  -0.00068
1161  H 12  py       0.00155   0.00145  -0.00061   0.00031  -0.00038
1162  H 12  pz      -0.00164  -0.00312  -0.00100  -0.00203   0.00142
1163  H 12  px      -0.00646  -0.00874   0.00122   0.00047   0.01022
1164  H 12  py       0.00247   0.00589   0.00588   0.00646  -0.00233
1165  H 12  pz       0.00203  -0.00579  -0.01563  -0.01929  -0.00232
1166  H 12  px      -0.01727  -0.00536  -0.00148   0.02721   0.00734
1167  H 12  py       0.01346   0.00258  -0.02595  -0.00273  -0.01017
1168  H 12  pz       0.03342   0.03130  -0.01613  -0.02523  -0.01485
1169  H 12  d 1      0.00008  -0.00002   0.00005  -0.00004   0.00009
1170  H 12  d 2     -0.00032  -0.00018   0.00011  -0.00015   0.00010
1171  H 12  d 3      0.00002   0.00013   0.00008   0.00033  -0.00011
1172  H 12  d 4      0.00028   0.00020  -0.00016  -0.00003  -0.00023
1173  H 12  d 5     -0.00011  -0.00012  -0.00013   0.00008   0.00006
1174  H 12  d 1     -0.00015   0.00023  -0.00064   0.00010  -0.00077
1175  H 12  d 2      0.00274   0.00326   0.00097   0.00274  -0.00134
1176  H 12  d 3     -0.00110  -0.00317  -0.00212  -0.00469   0.00137
1177  H 12  d 4     -0.00151  -0.00132   0.00187   0.00020   0.00237
1178  H 12  d 5      0.00079   0.00098   0.00078  -0.00003  -0.00043
1179  H 12  d 1      0.00291   0.00169  -0.00162  -0.00365  -0.00408
1180  H 12  d 2     -0.00212  -0.00453  -0.00409  -0.00280  -0.00103
1181  H 12  d 3      0.01642   0.01885  -0.00023   0.00049  -0.00884
1182  H 12  d 4     -0.00530  -0.00426  -0.00127   0.00803   0.00606
1183  H 12  d 5      0.00001  -0.00139  -0.00564   0.00033  -0.00109
1184  H 12  f 1     -0.00004  -0.00002  -0.00005   0.00000  -0.00001
1185  H 12  f 2      0.00008   0.00008   0.00002   0.00008  -0.00002
1186  H 12  f 3      0.00040   0.00069   0.00041   0.00056  -0.00022
1187  H 12  f 4     -0.00038  -0.00060  -0.00027  -0.00045   0.00018
1188  H 12  f 5     -0.00007  -0.00019   0.00007  -0.00020   0.00020
1189  H 12  f 6     -0.00000   0.00005   0.00019   0.00007   0.00006
1190  H 12  f 7     -0.00003  -0.00008  -0.00003  -0.00005   0.00005
1191  H 12  f 1     -0.00016  -0.00020   0.00024  -0.00017   0.00005
1192  H 12  f 2      0.00053   0.00048  -0.00088  -0.00118  -0.00157
1193  H 12  f 3     -0.00105  -0.00243  -0.00170  -0.00114   0.00027
1194  H 12  f 4      0.00445   0.00458   0.00018  -0.00006  -0.00168
1195  H 12  f 5     -0.00120  -0.00036   0.00088   0.00240   0.00137
1196  H 12  f 6      0.00081   0.00046  -0.00127   0.00008  -0.00082
1197  H 12  f 7      0.00025   0.00040  -0.00025  -0.00003  -0.00066
1198  H 12  g 1      0.00001   0.00001   0.00003   0.00001   0.00001
1199  H 12  g 2     -0.00004  -0.00003  -0.00001  -0.00001  -0.00001
1200  H 12  g 3      0.00007   0.00006  -0.00006  -0.00013  -0.00014
1201  H 12  g 4     -0.00003  -0.00007  -0.00002   0.00007  -0.00001
1202  H 12  g 5      0.00028   0.00023  -0.00005  -0.00010  -0.00011
1203  H 12  g 6     -0.00009  -0.00006   0.00009   0.00014   0.00015
1204  H 12  g 7      0.00007   0.00006  -0.00006   0.00005  -0.00006
1205  H 12  g 8      0.00005   0.00004  -0.00005  -0.00003  -0.00007
1206  H 12  g 9      0.00000   0.00002   0.00000   0.00001  -0.00002

 -----------------------------------------------------------------
                    Cartesian Multipole Moments
 -----------------------------------------------------------------
    Charge (ESU x 10^10)
                -0.0000
    Dipole Moment (Debye)
         X      -3.2049      Y      -1.6011      Z      -1.3992
       Tot       3.8461
    Quadrupole Moments (Debye-Ang)
        XX     -46.2110     XY       4.9576     YY     -33.1081
        XZ       6.3374     YZ       3.4634     ZZ     -44.7090
    Octopole Moments (Debye-Ang^2)
       XXX       1.5449    XXY       9.5484    XYY      -0.7680
       YYY     -37.6278    XXZ     -32.0714    XYZ      23.5491
       YYZ      -9.5704    XZZ      14.2902    YZZ      -0.8199
       ZZZ      12.7961
    Hexadecapole Moments (Debye-Ang^3)
      XXXX   -1029.9003   XXXY     237.7313   XXYY    -231.6673
      XYYY     172.3893   YYYY    -733.1058   XXXZ     147.2845
      XXYZ     -30.9237   XYYZ      32.4539   YYYZ    -100.3942
      XXZZ    -244.7583   XYZZ      85.3880   YYZZ    -198.4526
      XZZZ      78.0041   YZZZ    -146.8008   ZZZZ    -502.0489
 -----------------------------------------------------------------
 Total job time:  34891.22s(wall), 135525.16s(cpu) 
 Wed Jan 15 04:26:25 2025

        *************************************************************
        *                                                           *
        *  Thank you very much for using Q-Chem.  Have a nice day.  *
        *                                                           *
        *************************************************************


