                  Welcome to Q-Chem
     A Quantum Leap Into The Future Of Chemistry


 Q-Chem 6.2 (devel), Q-Chem, Inc., Pleasanton, CA (2024)

 E. Epifanovsky,  A. T. B. Gilbert,  Xintian Feng,  Joonho Lee,  Yuezhi Mao,  
 N. Mardirossian,  P. Pokhilko,  A. White,  M. Wormit,  M. P. Coons,  
 A. L. Dempwolff,  Zhengting Gan,  D. Hait,  P. R. Horn,  L. D. Jacobson,  
 I. Kaliman,  J. Kussmann,  A. W. Lange,  Ka Un Lao,  D. S. Levine,  Jie Liu,  
 S. C. McKenzie,  A. F. Morrison,  K. D. Nanda,  F. Plasser,  D. R. Rehn,  
 M. L. Vidal,  Zhi-Qiang You,  Ying Zhu,  Huseyin Aksu,  B. Alam,  
 B. Albrecht,  A. Aldossary,  E. Alguire,  J. H. Andersen,  
 J. E. Arias-Martinez,  V. Athavale,  D. Barton,  K. Begam,  A. Behn,  
 N. Bellonzi,  Y. A. Bernard,  E. J. Berquist,  H. Burton,  A. Carreras,  
 K. Carter-Fenk,  Mathew Chow,  Romit Chakraborty,  Chandrima Chakravarty,  
 Junhan Chen,  A. D. Chien,  K. D. Closser,  V. Cofer-Shabica,  L. Cunha,  
 S. Dasgupta,  Jia Deng,  Joseph Dickinson,  M. de Wergifosse,  
 M. Diedenhofen,  Hainam Do,  Wenjie Dou,  S. Ehlert,  Po-Tung Fang,  
 S. Fatehi,  Qingguo Feng,  Jonathan Fetherolf,  T. Friedhoff,  
 Thomas Froitzheim,  Sarai Folkestad,  B. Ganoe,  J. Gayvert,  Qinghui Ge,  
 G. Gidofalvi,  M. Gimferrer,  M. Goldey,  Montgomery Gray,  J. Gomes,  
 C. Gonzalez-Espinoza,  S. Gulania,  A. Gunina,  J. A. Gyamfi,  
 M. W. D. Hanson-Heine,  P. H. P. Harbach,  A. W. Hauser,  M. F. Herbst,  
 M. Hernandez Vera,  M. Hodecker,  Z. C. Holden,  S. Houck,  Xunkun Huang,  
 Kerwin Hui,  B. C. Huynh,  K. Ikeda,  M. Ivanov,  Nayanthara K. Jayadev,  
 Hyunjun Ji,  Zuxin Jin,  Hanjie Jiang,  Subrata Jana,  B. Kaduk,  
 S. Kaehler,  R. Kang,  K. Khistyaev,  Jaehoon Kim,  Yongbin Kim,  
 P. Klunzinger,  Z. Koczor-Benda,  Joong Hoon Koh,  D. Kosenkov,  
 Saikiran Kotaru,  L. Koulias,  T. Kowalczyk,  C. M. Krauter,  K. Kue,  
 A. Kunitsa,  T. Kus,  A. Landau,  K. V. Lawler,  D. Lefrancois,  S. Lehtola,  
 Rain Li,  Shaozhi Li,  Tao E. Li,  Yi-Pei Li,  Jiashu Liang,  M. Liebenthal,  
 Hung-Hsuan Lin,  You-Sheng Lin,  Fenglai Liu,  Kuan-Yu Liu,  Xiao Liu,  
 M. Loipersberger,  A. Luenser,  C. Malbon,  Aniket Mandal,  Manisha,  
 A. Manjanath,  P. Manohar,  E. Mansoor,  S. F. Manzer,  Shan-Ping Mao,  
 A. V. Marenich,  T. Markovich,  S. Mason,  F. Matz,  S. A. Maurer,  
 Samuel May,  Alexandra McIsaac,  P. F. McLaughlin,  M. F. S. J. Menger,  
 J.-M. Mewes,  S. A. Mewes,  P. Morgante,  Mohammad Mostafanejad,  
 Madhubani Mukherjee,  J. W. Mullinax,  Quyen Nguyen,  Avik Kumar Ojha,  
 K. J. Oosterbaan,  Eno Paenurk,  Xiaoliang Pan,  G. Paran,  V. Parravicini,  
 Alexander C. Paul,  Suranjan K. Paul,  F. Pavosevic,  Zheng Pei,  S. Prager,  
 E. I. Proynov,  E. Ramos,  B. Rana,  A. E. Rask,  A. Rettig,  R. M. Richard,  
 F. Rob,  E. Rossomme,  T. Scheele,  M. Scheurer,  M. Schneider,  
 P. E. Schneider,  Tim K. Schramm,  N. Sergueev,  S. M. Sharada,  
 Hengyuan Shen,  W. Skomorowski,  D. W. Small,  C. J. Stein,  
 Alistair J. Sterling,  Yingli Su,  Yu-Chuan Su,  E. J. Sundstrom,  
 J. Talbot,  Zhen Tao,  J. Thirman,  Hung-Yi Tsai,  T. Tsuchimochi,  
 N. M. Tubman,  C. Utku,  S. P. Veccham,  O. Vydrov,  Rahel Weiss,  
 J. Wenzel,  Jonathan Wong,  J. Witte,  H. Wu,  Yanze Wu,  A. Yamada,  
 Chou-Hsun Yang,  Kun Yao,  S. Yeganeh,  S. R. Yost,  Qi Yu,  A. Zech,  
 F. Zeller,  Chongxiao Zhao,  Igor Ying Zhang,  Xing Zhang,  Yu Zhang,  
 D. Zuev,  A. Aspuru-Guzik,  A. T. Bell,  N. A. Besley,  K. B. Bravaya,  
 B. R. Brooks,  D. Casanova,  Jeng-Da Chai,  Hsing-Ta Chen,  S. Coriani,  
 C. J. Cramer,  A. E. DePrince, III,  R. A. DiStasio Jr.,  A. Dreuw,  
 B. D. Dunietz,  T. R. Furlani,  W. A. Goddard III,  S. Grimme,  
 S. Hammes-Schiffer,  T. Head-Gordon,  W. J. Hehre,  Chao-Ping Hsu,  
 T.-C. Jagau,  Yousung Jung,  A. Klamt,  Jing Kong,  D. S. Lambrecht,  
 Xiangyuan Li,  WanZhen Liang,  N. J. Mayhall,  C. W. McCurdy,  J. B. Neaton,  
 T. Neudecker,  C. Ochsenfeld,  J. A. Parkhill,  R. Peverati,  
 V. A. Rassolov,  Haisheng Ren,  Yihan Shao,  L. V. Slipchenko,  
 R. P. Steele,  J. E. Subotnik,  A. J. W. Thom,  A. Tkatchenko,  
 D. G. Truhlar,  T. Van Voorhis,  Fan Wang,  T. A. Wesolowski,  K. B. Whaley,  
 H. L. Woodcock III,  P. M. Zimmerman,  S. Faraji,  P. M. W. Gill,  
 M. Head-Gordon,  J. M. Herbert,  A. I. Krylov

 Contributors to earlier versions of Q-Chem not listed above: 
 R. D. Adamson,  B. Austin,  R. Baer,  J. Baker,  G. J. O. Beran,  
 K. Brandhorst,  S. T. Brown,  E. F. C. Byrd,  Arup K. Chakraborty,  
 G. K. L. Chan,  Chun-Min Chang,  Yunqing Chen,  C.-L. Cheng,  
 Siu Hung Chien,  D. M. Chipman,  D. L. Crittenden,  H. Dachsel,  
 R. J. Doerksen,  A. D. Dutoi,  R. G. Edgar,  J. Fosso-Tande,  
 L. Fusti-Molnar,  D. Ghosh,  A. Ghysels,  A. Golubeva-Zadorozhnaya,  
 J. Gonthier,  M. S. Gordon,  S. R. Gwaltney,  G. Hawkins,  J. E. Herr,  
 A. Heyden,  S. Hirata,  E. G. Hohenstein,  G. Kedziora,  F. J. Keil,  
 C. Kelley,  Jihan Kim,  R. A. King,  R. Z. Khaliullin,  P. P. Korambath,  
 W. Kurlancheek,  A. Laurent,  A. M. Lee,  M. S. Lee,  S. V. Levchenko,  
 Ching Yeh Lin,  D. Liotard,  E. Livshits,  R. C. Lochan,  I. Lotan,  
 L. A. Martinez-Martinez,  P. E. Maslen,  N. Nair,  D. P. O'Neill,  
 D. Neuhauser,  E. Neuscamman,  C. M. Oana,  R. Olivares-Amaya,  R. Olson,  
 T. M. Perrine,  B. Peters,  P. A. Pieniazek,  A. Prociuk,  Y. M. Rhee,  
 J. Ritchie,  M. A. Rohrdanz,  E. Rosta,  N. J. Russ,  H. F. Schaefer III,  
 M. W. Schmidt,  N. E. Schultz,  S. Sharma,  N. Shenvi,  C. D. Sherrill,  
 A. C. Simmonett,  A. Sodt,  T. Stein,  D. Stuck,  K. S. Thanthiriwatte,  
 V. Vanovschi,  L. Vogt,  Tao Wang,  A. Warshel,  M. A. Watson,  
 C. F. Williams,  Q. Wu,  X. Xu,  Jun Yang,  W. Zhang,  Yan Zhao

   Please cite Q-Chem as follows:
  "Software for the frontiers of quantum chemistry:
   An overview of developments in the Q-Chem 5 package"
   J. Chem. Phys. 155, 084801 (2021)
   https://doi.org/10.1063/5.0055522 (open access)

 Q-Chem 6.2.2 for Intel X86 EM64T Linux

 Parts of Q-Chem use Armadillo 9.900.5 (Nocturnal Misbehaviour).
 http://arma.sourceforge.net/

 Q-Chem begins on Tue Dec 17 21:33:42 2024  

 Host: compute-0-15.local
0

     Scratch files written to /scratch/keith/A1D2_1//
 Processing $rem in /home/keith/software/qchem/qchem_622/config/preferences:
 Processing $rem in /home/keith/.qchemrc:

 Checking the input file for inconsistencies... 	...done.

--------------------------------------------------------------
User input:
--------------------------------------------------------------
$molecule
0 1
O 9.00190 -0.10839 1.02671
H 9.16590 -0.90639 0.48771
H 8.16790 0.21161 0.61971
O -15.38310 -2.09999 -0.62029
H -15.80210 -2.94380 -0.72629
H -14.51110 -2.29667 -0.20029
O -14.32710 1.11201 1.56071
H -15.19610 0.73251 1.51171
H -13.59110 0.56881 1.32871
O 8.06390 2.63481 -1.48229
H 7.54000 1.83431 -1.33329
H 8.98690 2.35441 -1.47329
O 6.50090 -2.06484 0.30771
H 6.39500 -1.07449 0.27871
H 6.51780 -2.30919 -0.64329
O 6.19940 0.65441 -0.66929
H 5.68380 1.40351 -0.33829
H 5.75580 0.39391 -1.46829
$end

$rem
method                    b3lyp 
basis                     cc-pv5z 
mem_total                 48000
mem_static                8000
thresh                    12
scf_convergence           8
xc_grid                   000075000302
max_scf_cycles            2000
symmetry                  false
sym_ignore                true
print_orbitals true
$end
gui                       2
molden_format true
--------------------------------------------------------------
 ----------------------------------------------------------------
             Standard Nuclear Orientation (Angstroms)
    I     Atom           X                Y                Z
 ----------------------------------------------------------------
    1      O       9.0019000000    -0.1083900000     1.0267100000
    2      H       9.1659000000    -0.9063900000     0.4877100000
    3      H       8.1679000000     0.2116100000     0.6197100000
    4      O     -15.3831000000    -2.0999900000    -0.6202900000
    5      H     -15.8021000000    -2.9438000000    -0.7262900000
    6      H     -14.5111000000    -2.2966700000    -0.2002900000
    7      O     -14.3271000000     1.1120100000     1.5607100000
    8      H     -15.1961000000     0.7325100000     1.5117100000
    9      H     -13.5911000000     0.5688100000     1.3287100000
   10      O       8.0639000000     2.6348100000    -1.4822900000
   11      H       7.5400000000     1.8343100000    -1.3332900000
   12      H       8.9869000000     2.3544100000    -1.4732900000
   13      O       6.5009000000    -2.0648400000     0.3077100000
   14      H       6.3950000000    -1.0744900000     0.2787100000
   15      H       6.5178000000    -2.3091900000    -0.6432900000
   16      O       6.1994000000     0.6544100000    -0.6692900000
   17      H       5.6838000000     1.4035100000    -0.3382900000
   18      H       5.7558000000     0.3939100000    -1.4682900000
 ----------------------------------------------------------------
 Nuclear Repulsion Energy =         181.32011018 hartrees
 There are       30 alpha and       30 beta electrons
 Requested basis set is cc-pV5Z
 There are 306 shells and 1206 basis functions

 Total QAlloc Memory Limit  48000 MB
 Mega-Array Size      7821 MB
 MEM_STATIC part      8000 MB

 A cutoff of  1.0D-12 yielded  20025 shell pairs
 There are    284671 function pairs (    480920 Cartesian)
 Smallest overlap matrix eigenvalue = 3.28E-05

 Scale SEOQF with 1.000000e-02/1.000000e-01/1.000000e-01

 Standard Electronic Orientation quadrupole field applied
 Nucleus-field energy     =     0.0000000291 hartrees
 Guess from superposition of atomic densities
 Warning:  Energy on first SCF cycle will be non-variational
 SAD guess density has 60.000000 electrons

 -----------------------------------------------------------------------
  General SCF calculation program by
  Eric Jon Sundstrom, Paul Horn, Yuezhi Mao, Dmitri Zuev, Alec White,
  David Stuck, Shaama M.S., Shane Yost, Joonho Lee, David Small,
  Daniel Levine, Susi Lehtola, Hugh Burton, Evgeny Epifanovsky,
  Bang C. Huynh
 -----------------------------------------------------------------------
 Exchange:     0.2000 Hartree-Fock + 0.0800 Slater + 0.7200 B88
 Correlation:  0.1900 VWN1RPA + 0.8100 LYP
 Using Euler-Maclaurin-Lebedev (75,302) quadrature formula
 A restricted SCF calculation will be
 performed using DIIS
 SCF converges when DIIS error is below 1.0e-08
 ---------------------------------------
  Cycle       Energy         DIIS error
 ---------------------------------------
    1    -458.5785005922      6.64e-03  
    2    -458.4341286366      1.78e-03  
    3    -457.9535584717      2.66e-03  
    4    -458.8420838501      1.01e-04  
    5    -458.8423643885      9.06e-05  
    6    -458.8433100993      9.79e-06  
    7    -458.8433199689      2.66e-06  
    8    -458.8433205106      1.65e-06  
    9    -458.8433208329      9.55e-08  
   10    -458.8433208338      5.43e-08  
   11    -458.8433208341      1.88e-08  
   12    -458.8433208342      1.23e-09  Convergence criterion met
 ---------------------------------------
 SCF time:   CPU 63553.32s  wall 2018.00s 
 SCF   energy =  -458.84332083
 Total energy =  -458.84332083

 --------------------------------------------------------------

                    Orbital Energies (a.u.)
 --------------------------------------------------------------

 Alpha MOs
 -- Occupied --
-19.2025 -19.1432 -19.1323 -19.1251 -19.1206 -19.1204  -1.0931  -1.0255
 -1.0112  -1.0064  -1.0056  -1.0015  -0.6078  -0.5617  -0.5462  -0.5349
 -0.5297  -0.5122  -0.4747  -0.4130  -0.4060  -0.3933  -0.3881  -0.3732
 -0.3703  -0.3313  -0.3215  -0.3160  -0.3139  -0.3072
 -- Virtual --
 -0.0504  -0.0223   0.0070   0.0147   0.0184   0.0328   0.0496   0.0549
  0.0762   0.0779   0.1022   0.1218   0.1587   0.1826   0.1865   0.1948
  0.2062   0.2068   0.2131   0.2216   0.2232   0.2263   0.2350   0.2379
  0.2406   0.2437   0.2518   0.2574   0.2626   0.2639   0.2837   0.2871
  0.3006   0.3057   0.3070   0.3150   0.3217   0.3267   0.3432   0.3445
  0.3593   0.3668   0.3721   0.3847   0.3853   0.4060   0.4076   0.4165
  0.4273   0.4296   0.4526   0.4576   0.4587   0.4914   0.5018   0.5169
  0.5186   0.5276   0.5527   0.5559   0.5874   0.5917   0.6001   0.6175
  0.6278   0.6432   0.6490   0.6538   0.6706   0.6720   0.6882   0.6990
  0.7107   0.7143   0.7242   0.7324   0.7418   0.7493   0.7636   0.7731
  0.7874   0.7917   0.7959   0.8043   0.8126   0.8275   0.8309   0.8313
  0.8410   0.8451   0.8696   0.8897   0.9029   0.9439   0.9578   0.9651
  0.9736   0.9768   0.9916   0.9938   0.9981   1.0045   1.0296   1.0365
  1.0429   1.0504   1.0531   1.0690   1.0815   1.0881   1.0982   1.1084
  1.1224   1.1332   1.1346   1.1567   1.1600   1.1706   1.1810   1.1885
  1.2085   1.2135   1.2242   1.2516   1.2536   1.2698   1.2866   1.3072
  1.3185   1.3277   1.3440   1.3619   1.3786   1.3888   1.4137   1.4204
  1.4342   1.4362   1.4566   1.4604   1.4681   1.4804   1.4914   1.4930
  1.4979   1.5052   1.5173   1.5179   1.5305   1.5427   1.5488   1.5558
  1.5700   1.5839   1.5979   1.6048   1.6096   1.6252   1.6529   1.6598
  1.6726   1.6738   1.6833   1.6834   1.6933   1.6935   1.7016   1.7188
  1.7211   1.7288   1.7325   1.7402   1.7439   1.7491   1.7642   1.7674
  1.7788   1.7829   1.7976   1.7986   1.8078   1.8241   1.8260   1.8297
  1.8363   1.8418   1.8651   1.8713   1.8898   1.8934   1.9031   1.9067
  1.9278   1.9309   1.9442   1.9539   1.9768   1.9802   1.9986   2.0030
  2.0083   2.0293   2.0321   2.0494   2.0565   2.0687   2.0709   2.0858
  2.1051   2.1253   2.1294   2.1442   2.1613   2.1736   2.1931   2.2080
  2.2311   2.2419   2.2509   2.2598   2.2659   2.2699   2.2969   2.3103
  2.3155   2.3360   2.3394   2.3650   2.3727   2.3858   2.3860   2.4071
  2.4200   2.4259   2.4465   2.4653   2.4802   2.5070   2.5118   2.5323
  2.5667   2.5805   2.5922   2.5962   2.6108   2.6147   2.6236   2.6405
  2.6440   2.6762   2.6816   2.6864   2.6906   2.7032   2.7088   2.7282
  2.7355   2.7477   2.7495   2.7704   2.8087   2.8173   2.8239   2.8385
  2.8481   2.8525   2.8683   2.8924   2.8974   2.8996   2.9072   2.9243
  2.9288   2.9366   2.9429   2.9641   2.9859   3.0058   3.0124   3.0161
  3.0567   3.0752   3.0857   3.1183   3.1484   3.1629   3.1679   3.1703
  3.1923   3.2114   3.2340   3.2554   3.2587   3.2663   3.3143   3.3231
  3.3242   3.3517   3.3523   3.3629   3.3688   3.3860   3.3955   3.4221
  3.4231   3.4257   3.4439   3.4552   3.4563   3.4579   3.4781   3.4874
  3.4938   3.5245   3.5248   3.5305   3.5357   3.5616   3.5904   3.5911
  3.6168   3.6357   3.6467   3.6563   3.6669   3.6839   3.6998   3.7127
  3.7158   3.7586   3.7596   3.7727   3.7735   3.7881   3.8136   3.8226
  3.8366   3.8544   3.8584   3.8615   3.8882   3.8935   3.9268   3.9336
  3.9532   3.9752   3.9831   3.9978   4.0032   4.0100   4.0186   4.0462
  4.0828   4.0837   4.0929   4.1161   4.1508   4.1751   4.2304   4.2405
  4.2467   4.2505   4.2713   4.2958   4.3342   4.3495   4.3756   4.3798
  4.3878   4.3950   4.4050   4.4065   4.4177   4.4198   4.4319   4.4384
  4.4492   4.4535   4.4630   4.4792   4.4829   4.4876   4.4937   4.4940
  4.4997   4.5130   4.5161   4.5229   4.5305   4.5356   4.5439   4.5661
  4.5817   4.5849   4.6003   4.6016   4.6125   4.6319   4.6391   4.6515
  4.6553   4.6755   4.6867   4.6919   4.6978   4.7048   4.7180   4.7334
  4.7425   4.7453   4.7541   4.7609   4.7723   4.7794   4.7823   4.8034
  4.8142   4.8427   4.8514   4.8536   4.8660   4.8839   4.9075   4.9111
  4.9242   4.9421   4.9444   4.9600   4.9628   4.9748   4.9806   4.9967
  5.0024   5.0228   5.0277   5.0311   5.0772   5.1003   5.1023   5.1319
  5.1466   5.1571   5.1941   5.2244   5.2449   5.2522   5.2584   5.2708
  5.2805   5.3048   5.3100   5.3127   5.3335   5.3352   5.3471   5.3634
  5.3807   5.3886   5.4078   5.4285   5.4428   5.4516   5.4785   5.4972
  5.5384   5.5541   5.5824   5.5995   5.6010   5.6601   5.6624   5.6920
  5.7302   5.7383   5.7744   5.7930   5.7968   5.8433   5.8604   5.8641
  5.9019   5.9338   5.9547   5.9770   5.9917   5.9964   6.0366   6.0409
  6.0654   6.0805   6.1425   6.1810   6.1966   6.2305   6.2345   6.2593
  6.2680   6.2760   6.2769   6.2848   6.3033   6.3159   6.3178   6.3261
  6.3430   6.3501   6.3850   6.4373   6.4409   6.4553   6.5271   6.5632
  6.5717   6.5824   6.5970   6.6000   6.6055   6.6339   6.6504   6.6722
  6.6862   6.7023   6.7054   6.7453   6.7474   6.7644   6.7666   6.7731
  6.7822   6.7847   6.8006   6.8050   6.8134   6.8326   6.8358   6.8430
  6.8625   6.8636   6.8963   6.8993   6.9091   6.9092   6.9249   6.9311
  6.9357   6.9694   6.9984   7.0099   7.0165   7.0574   7.0721   7.0862
  7.0934   7.1018   7.1128   7.1170   7.1289   7.1582   7.1788   7.2010
  7.2126   7.2198   7.2404   7.2564   7.2853   7.3147   7.3288   7.3294
  7.3330   7.3419   7.3458   7.4042   7.4350   7.4451   7.4536   7.4843
  7.4964   7.5251   7.5392   7.5643   7.5877   7.6051   7.6281   7.6463
  7.6601   7.6824   7.7095   7.7219   7.7379   7.7490   7.7610   7.7786
  7.7945   7.8000   7.8147   7.8316   7.8477   7.8670   7.8957   7.8975
  7.9502   7.9522   8.0093   8.0646   8.0979   8.1771   8.1822   8.2243
  8.2938   8.3390   8.3487   8.4554   8.4817   8.5023   8.5498   8.6157
  8.6756   8.7435   8.9561   8.9705   8.9854   8.9991   9.0029   9.0050
  9.0153   9.0295   9.0702   9.0775   9.1041   9.1145   9.1305   9.1420
  9.1811   9.2008   9.2716   9.3267   9.6165   9.6296   9.6429   9.6831
  9.6856   9.6960   9.7174   9.7339   9.7540   9.7618   9.7702   9.7901
  9.7988   9.8065   9.8089   9.8198   9.8349  10.0196  11.6619  11.6828
 11.6946  11.7088  11.7126  11.7212  11.7336  11.7367  11.7374  11.7484
 11.7624  11.7696  11.7805  11.7965  11.8033  11.8147  11.8244  11.8363
 11.8410  11.8518  11.8779  11.9139  11.9463  11.9787  11.9826  12.0018
 12.0303  12.0530  12.0567  12.0623  12.0667  12.0698  12.0727  12.1044
 12.1083  12.1242  12.1261  12.1296  12.1438  12.1479  12.1589  12.1598
 12.1676  12.1701  12.1751  12.1839  12.1854  12.1880  12.1902  12.1979
 12.2016  12.2099  12.2148  12.2278  12.2310  12.2414  12.2497  12.2592
 12.2742  12.2887  12.2934  12.2943  12.3033  12.3050  12.3071  12.3141
 12.3327  12.3411  12.3644  12.3802  12.3822  12.3872  12.3916  12.3972
 12.4170  12.4201  12.4316  12.4327  12.4460  12.4823  12.4861  12.5054
 12.5089  12.5187  12.5414  12.5491  12.5611  12.5657  12.5734  12.5814
 12.6035  12.6209  12.6347  12.6578  12.6634  12.6766  12.6848  12.6860
 12.6891  12.6900  12.6994  12.7093  12.7207  12.7436  12.7838  12.7975
 12.8123  12.8134  12.8245  12.8268  12.8651  12.8759  12.8787  12.8908
 12.9022  12.9053  12.9290  12.9341  12.9542  12.9612  13.0002  13.0288
 13.0875  13.1211  13.1410  13.1777  13.1831  13.1960  13.2092  13.2191
 13.2250  13.2310  13.2514  13.2573  13.2715  13.2885  13.2886  13.3061
 13.3068  13.3140  13.3211  13.3347  13.3388  13.3413  13.3505  13.3623
 13.3698  13.3801  13.3834  13.3933  13.4038  13.4222  13.4223  13.4307
 13.4309  13.4367  13.4658  13.4754  13.4869  13.4882  13.5008  13.5063
 13.5215  13.5247  13.5293  13.5338  13.5411  13.5462  13.5497  13.5583
 13.5707  13.5718  13.5842  13.6132  13.6155  13.6382  13.6606  13.6611
 13.6752  13.6806  13.6979  13.7114  13.7123  13.7154  13.7557  13.7725
 13.7885  13.8071  13.8228  13.8453  13.8455  13.8721  13.8826  13.9186
 13.9366  13.9370  13.9655  13.9795  13.9909  13.9977  14.0223  14.0240
 14.0749  14.1028  14.1070  14.1086  14.1191  14.1278  14.1365  14.1579
 14.2019  14.2178  14.2253  14.2517  14.2759  14.2979  14.3017  14.3356
 14.3849  14.3892  14.4610  14.4699  14.5261  14.5334  14.5350  14.5430
 14.5823  14.6065  14.6249  14.6435  14.6699  14.6717  14.7306  14.7697
 15.0721  15.1035  15.1159  15.1236  15.1627  15.1693  15.1817  15.3871
 15.4455  15.4791  15.5036  15.5085  15.5297  15.5692  15.5908  15.6053
 15.6132  15.6583  15.6697  15.7075  15.7203  15.7403  15.7856  15.8006
 15.8062  15.8469  15.8717  15.8928  15.9037  15.9238  15.9348  15.9622
 15.9917  15.9979  16.0309  16.0414  16.0476  16.0654  16.0680  16.0792
 16.0927  16.0946  16.1028  16.1108  16.1178  16.1259  16.1291  16.1325
 16.1463  16.1531  16.1551  16.1753  16.1934  16.1982  16.2020  16.2116
 16.2151  16.2377  16.2490  16.2572  16.2574  16.2831  16.2984  16.3362
 16.3908  16.4009  16.4164  16.4584  16.4671  16.4777  16.5324  16.5362
 16.5467  16.6002  16.7116  16.7680  16.8016  16.8793  16.9553  17.0047
 17.0100  17.0359  17.0417  17.0466  17.0692  17.0850  17.0857  17.1177
 17.1192  17.1568  17.1621  17.1804  17.2081  17.2378  17.2477  17.2550
 17.2723  17.2953  17.3313  17.3347  17.4010  17.4200  17.4689  17.5048
 17.5185  17.5514  17.5704  17.5999  17.6237  17.6376  17.6447  17.6528
 17.6560  17.6799  17.7233  17.7545  17.7721  17.7844  17.8542  17.9007
 17.9375  17.9666  17.9872  17.9939  18.0552  18.0911  18.0999  18.1383
 18.1618  18.1763  18.2069  18.2104  18.2106  18.2151  18.2201  18.2252
 18.2525  18.3042  18.3129  18.3266  18.3641  18.3647  18.3855  18.3894
 18.3968  18.4024  18.4365  18.4554  18.4621  18.4942  18.5305  18.5567
 18.5819  18.6238  18.6393  18.6639  18.7522  18.7688  18.7972  18.8176
 18.8422  18.8646  18.8828  18.8895  18.8969  18.9892  18.9929  18.9959
 19.0272  19.0560  19.1334  19.1839  19.2651  19.2712  19.2830  19.3033
 19.3052  19.3511  19.3600  19.3677  19.3856  19.3883  19.4121  19.4200
 19.4459  19.4592  19.4742  19.4818  19.4831  19.5237  19.5550  19.5786
 19.5900  19.6034  19.6285  19.6845  19.7068  19.7224  19.7315  19.7522
 19.7882  19.8493  19.8630  19.9982  20.5586  20.6038  20.6078  20.6166
 20.6830  20.7197  20.7378  20.7976  20.8556  20.8960  20.9095  21.2123
 21.7647  21.8217  21.8408  21.8732  21.8831  21.8968  21.9121  21.9312
 21.9527  21.9733  22.0311  22.0645  22.1966  22.2271  22.2541  22.2907
 22.2969  22.3202  22.5327  22.6048  22.7282  22.7588  22.7627  22.8275
 22.8750  22.9184  22.9503  22.9893  23.0087  23.0419  23.0554  23.1127
 23.1374  23.2031  23.2037  23.2620  23.3052  23.3478  23.4027  23.4100
 23.5113  23.5611  24.1428  24.1928  24.2969  24.3604  24.4403  24.4870
 24.4937  24.5129  24.5266  24.7550  24.8763  24.9551  24.9789  24.9827
 25.0833  25.1317  25.1698  25.4067  25.5274  25.7197  25.9782  26.0445
 26.0503  26.2859  63.8754  63.9161  64.0254  64.1852  64.2378  64.5150
 --------------------------------------------------------------


                        RESTRICTED (RHF) MOLECULAR ORBITAL COEFFICIENTS
                         1         2         3         4         5         6
 eigenvalues:        -19.203   -19.143   -19.132   -19.125   -19.121   -19.120
   1  O 1   s       -0.00001   0.00000  -0.00009  -0.97832   0.00002   0.00000
   2  O 1   s       -0.00002   0.00000  -0.00003  -0.03068   0.00001   0.00000
   3  O 1   s       -0.00002   0.00000  -0.00005  -0.08474   0.00002   0.00000
   4  O 1   s        0.00007  -0.00000   0.00004   0.01467  -0.00001   0.00000
   5  O 1   s        0.00015   0.00000   0.00026   0.01345  -0.00023  -0.00000
   6  O 1   s       -0.00043   0.00000  -0.00036   0.00060   0.00011  -0.00000
   7  O 1   px      -0.00000  -0.00000  -0.00000   0.00063   0.00000   0.00000
   8  O 1   py       0.00000  -0.00000   0.00000   0.00046  -0.00000  -0.00000
   9  O 1   pz      -0.00000  -0.00000  -0.00000   0.00094   0.00000   0.00000
  10  O 1   px       0.00002   0.00000   0.00002   0.00045  -0.00002  -0.00000
  11  O 1   py      -0.00000   0.00000  -0.00001   0.00026   0.00001   0.00000
  12  O 1   pz       0.00002   0.00000   0.00002   0.00057  -0.00001  -0.00000
  13  O 1   px      -0.00012   0.00000  -0.00023  -0.00513   0.00017   0.00000
  14  O 1   py       0.00006  -0.00000   0.00014  -0.00327  -0.00013  -0.00000
  15  O 1   pz      -0.00008  -0.00000  -0.00009  -0.00688   0.00005   0.00000
  16  O 1   px       0.00032  -0.00000   0.00005   0.00005   0.00024   0.00000
  17  O 1   py      -0.00033  -0.00000   0.00061  -0.00030  -0.00009   0.00000
  18  O 1   pz      -0.00005  -0.00000  -0.00019  -0.00018   0.00001   0.00000
  19  O 1   px       0.00014  -0.00000   0.00002   0.00022   0.00004   0.00000
  20  O 1   py      -0.00009  -0.00000   0.00011  -0.00013  -0.00010  -0.00000
  21  O 1   pz      -0.00002  -0.00000   0.00002   0.00009  -0.00005   0.00000
  22  O 1   d 1      0.00000  -0.00000  -0.00000   0.00018   0.00000   0.00000
  23  O 1   d 2      0.00000   0.00000  -0.00000  -0.00014  -0.00000   0.00000
  24  O 1   d 3     -0.00000  -0.00000   0.00000   0.00007   0.00000  -0.00000
  25  O 1   d 4     -0.00000   0.00000  -0.00000  -0.00012  -0.00000  -0.00000
  26  O 1   d 5     -0.00000   0.00000  -0.00000   0.00000   0.00000   0.00000
  27  O 1   d 1     -0.00000   0.00000   0.00001  -0.00029  -0.00000  -0.00000
  28  O 1   d 2     -0.00001  -0.00000   0.00001   0.00025   0.00000  -0.00000
  29  O 1   d 3     -0.00000   0.00000  -0.00001  -0.00011  -0.00000   0.00000
  30  O 1   d 4      0.00000  -0.00000   0.00000   0.00022   0.00001   0.00000
  31  O 1   d 5      0.00000  -0.00000   0.00001   0.00001   0.00000  -0.00000
  32  O 1   d 1      0.00003   0.00000  -0.00010  -0.00204   0.00003   0.00000
  33  O 1   d 2      0.00001   0.00000  -0.00008   0.00131   0.00006   0.00000
  34  O 1   d 3      0.00002  -0.00000   0.00001  -0.00088   0.00001  -0.00000
  35  O 1   d 4      0.00002  -0.00000   0.00007   0.00111  -0.00009  -0.00000
  36  O 1   d 5      0.00000  -0.00000   0.00006  -0.00004  -0.00005  -0.00000
  37  O 1   d 1      0.00013   0.00000  -0.00025   0.00040  -0.00004   0.00000
  38  O 1   d 2      0.00014   0.00000  -0.00014  -0.00037   0.00007  -0.00000
  39  O 1   d 3      0.00012  -0.00000   0.00014   0.00009   0.00002  -0.00000
  40  O 1   d 4     -0.00005   0.00000   0.00007  -0.00060  -0.00008  -0.00000
  41  O 1   d 5     -0.00013   0.00000  -0.00002  -0.00020  -0.00007   0.00000
  42  O 1   f 1      0.00000  -0.00000   0.00000  -0.00010  -0.00000   0.00000
  43  O 1   f 2      0.00000  -0.00000   0.00000  -0.00008   0.00000   0.00000
  44  O 1   f 3     -0.00000   0.00000  -0.00000   0.00003   0.00000   0.00000
  45  O 1   f 4      0.00000  -0.00000   0.00000  -0.00010   0.00000   0.00000
  46  O 1   f 5      0.00000  -0.00000  -0.00000  -0.00001  -0.00000  -0.00000
  47  O 1   f 6      0.00000  -0.00000   0.00000  -0.00002  -0.00000  -0.00000
  48  O 1   f 7     -0.00000   0.00000   0.00000   0.00006   0.00000   0.00000
  49  O 1   f 1     -0.00001   0.00000  -0.00000   0.00081  -0.00000  -0.00000
  50  O 1   f 2     -0.00000   0.00000   0.00000   0.00066  -0.00001  -0.00000
  51  O 1   f 3      0.00001  -0.00000   0.00001  -0.00024  -0.00001  -0.00000
  52  O 1   f 4     -0.00000   0.00000   0.00000   0.00076  -0.00000  -0.00000
  53  O 1   f 5     -0.00001   0.00000   0.00001   0.00011   0.00001   0.00000
  54  O 1   f 6     -0.00001   0.00000  -0.00001   0.00015   0.00002   0.00000
  55  O 1   f 7      0.00000  -0.00000  -0.00001  -0.00048  -0.00000   0.00000
  56  O 1   f 1     -0.00004   0.00000   0.00004  -0.00030   0.00001   0.00000
  57  O 1   f 2     -0.00004  -0.00000   0.00008  -0.00022   0.00000  -0.00000
  58  O 1   f 3     -0.00002  -0.00000  -0.00002   0.00016  -0.00003  -0.00000
  59  O 1   f 4     -0.00002   0.00000  -0.00002  -0.00034  -0.00001  -0.00000
  60  O 1   f 5     -0.00004   0.00000  -0.00008   0.00004   0.00003   0.00000
  61  O 1   f 6      0.00003   0.00000  -0.00002   0.00003   0.00004   0.00000
  62  O 1   f 7      0.00001  -0.00000   0.00001   0.00022   0.00002  -0.00000
  63  O 1   g 1     -0.00000   0.00000   0.00000  -0.00003   0.00000   0.00000
  64  O 1   g 2     -0.00000  -0.00000   0.00000  -0.00013   0.00000   0.00000
  65  O 1   g 3     -0.00000   0.00000  -0.00000  -0.00002   0.00000   0.00000
  66  O 1   g 4      0.00000  -0.00000  -0.00000  -0.00001  -0.00000   0.00000
  67  O 1   g 5      0.00000  -0.00000   0.00000  -0.00006   0.00000   0.00000
  68  O 1   g 6     -0.00000   0.00000  -0.00000  -0.00005   0.00000   0.00000
  69  O 1   g 7      0.00000  -0.00000  -0.00000  -0.00004   0.00000   0.00000
  70  O 1   g 8      0.00000  -0.00000   0.00000   0.00008   0.00000  -0.00000
  71  O 1   g 9      0.00000  -0.00000   0.00000   0.00003   0.00000  -0.00000
  72  O 1   g 1      0.00002  -0.00000  -0.00000   0.00001  -0.00001  -0.00000
  73  O 1   g 2      0.00001  -0.00000  -0.00001  -0.00002  -0.00000  -0.00000
  74  O 1   g 3     -0.00000   0.00000  -0.00000  -0.00001   0.00000   0.00000
  75  O 1   g 4     -0.00000  -0.00000   0.00001  -0.00003   0.00001  -0.00000
  76  O 1   g 5     -0.00001  -0.00000  -0.00001   0.00002   0.00000   0.00000
  77  O 1   g 6      0.00002  -0.00000   0.00002  -0.00000  -0.00001  -0.00000
  78  O 1   g 7      0.00001  -0.00000   0.00001  -0.00002  -0.00001  -0.00000
  79  O 1   g 8     -0.00000   0.00000   0.00000   0.00002  -0.00000   0.00000
  80  O 1   g 9     -0.00000   0.00000  -0.00001  -0.00001   0.00000   0.00000
  81  O 1   h 1     -0.00000  -0.00000   0.00000   0.00002   0.00000   0.00000
  82  O 1   h 2     -0.00000   0.00000   0.00000   0.00001   0.00000  -0.00000
  83  O 1   h 3      0.00000   0.00000   0.00000   0.00004  -0.00000  -0.00000
  84  O 1   h 4      0.00000  -0.00000   0.00000  -0.00002  -0.00000  -0.00000
  85  O 1   h 5     -0.00000   0.00000  -0.00000   0.00003   0.00000   0.00000
  86  O 1   h 6      0.00000  -0.00000   0.00000  -0.00002  -0.00000  -0.00000
  87  O 1   h 7      0.00000  -0.00000   0.00000   0.00001  -0.00000  -0.00000
  88  O 1   h 8     -0.00000   0.00000  -0.00000   0.00001   0.00000   0.00000
  89  O 1   h 9     -0.00000   0.00000  -0.00000  -0.00003   0.00000  -0.00000
  90  O 1   h10      0.00000  -0.00000   0.00000  -0.00003  -0.00000  -0.00000
  91  O 1   h11     -0.00000  -0.00000   0.00000   0.00003  -0.00000   0.00000
  92  H 1   s       -0.00000   0.00000  -0.00000   0.00019   0.00000   0.00000
  93  H 1   s        0.00001   0.00000  -0.00002   0.00148   0.00002  -0.00000
  94  H 1   s       -0.00022  -0.00000   0.00020  -0.00861  -0.00024   0.00000
  95  H 1   s       -0.00008  -0.00000   0.00046  -0.00117  -0.00041   0.00000
  96  H 1   s       -0.00009  -0.00000  -0.00001  -0.00030  -0.00002  -0.00000
  97  H 1   px       0.00000   0.00000   0.00000  -0.00004  -0.00000   0.00000
  98  H 1   py      -0.00000   0.00000   0.00000   0.00016   0.00000   0.00000
  99  H 1   pz      -0.00000   0.00000   0.00000   0.00011   0.00000   0.00000
 100  H 1   px      -0.00001  -0.00000  -0.00001   0.00005  -0.00000   0.00000
 101  H 1   py       0.00001  -0.00000  -0.00001  -0.00004   0.00001  -0.00000
 102  H 1   pz       0.00000  -0.00000  -0.00001   0.00001  -0.00000  -0.00000
 103  H 1   px       0.00003   0.00000  -0.00007   0.00102   0.00004  -0.00000
 104  H 1   py      -0.00005  -0.00000   0.00007  -0.00585  -0.00014   0.00000
 105  H 1   pz       0.00001  -0.00000   0.00010  -0.00417  -0.00003   0.00000
 106  H 1   px       0.00000   0.00000  -0.00012   0.00033   0.00005  -0.00000
 107  H 1   py      -0.00004  -0.00000   0.00015  -0.00168  -0.00018   0.00000
 108  H 1   pz      -0.00000  -0.00000   0.00024  -0.00121  -0.00006   0.00000
 109  H 1   d 1     -0.00000  -0.00000   0.00000  -0.00003  -0.00000   0.00000
 110  H 1   d 2     -0.00000   0.00000   0.00000   0.00018   0.00000  -0.00000
 111  H 1   d 3     -0.00000   0.00000  -0.00000   0.00001  -0.00000  -0.00000
 112  H 1   d 4      0.00000  -0.00000  -0.00001  -0.00004  -0.00000   0.00000
 113  H 1   d 5      0.00000  -0.00000   0.00000  -0.00013  -0.00000   0.00000
 114  H 1   d 1      0.00001   0.00000  -0.00001   0.00049   0.00001  -0.00000
 115  H 1   d 2      0.00001  -0.00000   0.00001  -0.00197  -0.00001   0.00000
 116  H 1   d 3      0.00000  -0.00000   0.00001   0.00003   0.00001   0.00000
 117  H 1   d 4     -0.00001   0.00000   0.00002   0.00038   0.00001  -0.00000
 118  H 1   d 5     -0.00001   0.00000  -0.00000   0.00138   0.00002  -0.00000
 119  H 1   d 1     -0.00001   0.00000  -0.00007   0.00065   0.00003  -0.00000
 120  H 1   d 2      0.00002  -0.00000   0.00009  -0.00224  -0.00002   0.00000
 121  H 1   d 3      0.00001  -0.00000   0.00002   0.00007   0.00004  -0.00000
 122  H 1   d 4      0.00001   0.00000  -0.00014   0.00048   0.00000  -0.00000
 123  H 1   d 5      0.00001   0.00000  -0.00001   0.00157   0.00005  -0.00000
 124  H 1   f 1     -0.00000   0.00000  -0.00000   0.00012   0.00000   0.00000
 125  H 1   f 2     -0.00000   0.00000   0.00000   0.00008   0.00000  -0.00000
 126  H 1   f 3      0.00000  -0.00000   0.00000  -0.00009   0.00000   0.00000
 127  H 1   f 4      0.00000   0.00000   0.00000   0.00012   0.00000  -0.00000
 128  H 1   f 5     -0.00000   0.00000   0.00000   0.00001   0.00000  -0.00000
 129  H 1   f 6      0.00000   0.00000  -0.00000   0.00020   0.00000  -0.00000
 130  H 1   f 7      0.00000  -0.00000  -0.00000  -0.00006  -0.00000   0.00000
 131  H 1   f 1      0.00000   0.00000   0.00001   0.00054   0.00001  -0.00000
 132  H 1   f 2     -0.00001   0.00000  -0.00003   0.00040   0.00001  -0.00000
 133  H 1   f 3      0.00000  -0.00000   0.00001  -0.00042   0.00001   0.00000
 134  H 1   f 4     -0.00000   0.00000  -0.00002   0.00058   0.00001  -0.00000
 135  H 1   f 5     -0.00000   0.00000  -0.00002   0.00007  -0.00000  -0.00000
 136  H 1   f 6     -0.00001   0.00000   0.00001   0.00100   0.00001  -0.00000
 137  H 1   f 7      0.00000  -0.00000   0.00002  -0.00036  -0.00001   0.00000
 138  H 1   g 1      0.00000  -0.00000  -0.00000  -0.00005  -0.00000   0.00000
 139  H 1   g 2     -0.00000   0.00000   0.00000   0.00012   0.00000  -0.00000
 140  H 1   g 3     -0.00000   0.00000  -0.00000   0.00003  -0.00000  -0.00000
 141  H 1   g 4     -0.00000  -0.00000  -0.00000   0.00006   0.00000   0.00000
 142  H 1   g 5     -0.00000   0.00000  -0.00000   0.00009  -0.00000  -0.00000
 143  H 1   g 6     -0.00000  -0.00000   0.00000  -0.00002  -0.00000   0.00000
 144  H 1   g 7     -0.00000   0.00000   0.00000   0.00009  -0.00000  -0.00000
 145  H 1   g 8      0.00000  -0.00000   0.00000  -0.00008  -0.00000   0.00000
 146  H 1   g 9      0.00000   0.00000  -0.00000  -0.00006  -0.00000   0.00000
 147  H 2   s       -0.00001   0.00000   0.00000   0.00016   0.00000   0.00000
 148  H 2   s        0.00009  -0.00000   0.00008   0.00174  -0.00008  -0.00000
 149  H 2   s        0.00030  -0.00000  -0.00077  -0.00860   0.00046   0.00000
 150  H 2   s        0.00006  -0.00000   0.00021  -0.00071   0.00031   0.00000
 151  H 2   s        0.00014   0.00000  -0.00002   0.00015   0.00010  -0.00000
 152  H 2   px      -0.00001   0.00000  -0.00001   0.00016   0.00000   0.00000
 153  H 2   py       0.00000  -0.00000  -0.00000  -0.00007  -0.00000  -0.00000
 154  H 2   pz      -0.00001  -0.00000  -0.00000   0.00007   0.00000   0.00000
 155  H 2   px       0.00007  -0.00000   0.00005   0.00009  -0.00003  -0.00000
 156  H 2   py      -0.00003   0.00000  -0.00000   0.00003   0.00001   0.00000
 157  H 2   pz       0.00004  -0.00000   0.00001   0.00009  -0.00001  -0.00000
 158  H 2   px      -0.00015   0.00000  -0.00044  -0.00649   0.00030   0.00000
 159  H 2   py       0.00009   0.00000   0.00007   0.00222  -0.00014  -0.00000
 160  H 2   pz      -0.00001  -0.00000  -0.00007  -0.00338   0.00007   0.00000
 161  H 2   px       0.00029  -0.00000  -0.00027  -0.00163   0.00007   0.00000
 162  H 2   py      -0.00004   0.00000  -0.00032   0.00052  -0.00017  -0.00000
 163  H 2   pz       0.00028  -0.00000   0.00005  -0.00084  -0.00001   0.00000
 164  H 2   d 1     -0.00000   0.00000  -0.00001  -0.00010  -0.00000   0.00000
 165  H 2   d 2      0.00000  -0.00000  -0.00001  -0.00007  -0.00000   0.00000
 166  H 2   d 3     -0.00001   0.00000  -0.00001  -0.00005   0.00000   0.00000
 167  H 2   d 4     -0.00001  -0.00000   0.00001   0.00016   0.00000   0.00000
 168  H 2   d 5     -0.00000  -0.00000  -0.00001   0.00014  -0.00000  -0.00000
 169  H 2   d 1     -0.00000  -0.00000   0.00004   0.00114  -0.00001  -0.00000
 170  H 2   d 2     -0.00002   0.00000   0.00002   0.00062  -0.00000  -0.00000
 171  H 2   d 3      0.00002  -0.00000   0.00004   0.00057  -0.00003  -0.00000
 172  H 2   d 4      0.00006   0.00000  -0.00004  -0.00159  -0.00001   0.00000
 173  H 2   d 5      0.00002   0.00000  -0.00002  -0.00138   0.00003   0.00000
 174  H 2   d 1      0.00015   0.00000   0.00001   0.00141  -0.00014  -0.00000
 175  H 2   d 2      0.00004   0.00000  -0.00008   0.00073  -0.00004  -0.00000
 176  H 2   d 3      0.00005   0.00000   0.00004   0.00069  -0.00007  -0.00000
 177  H 2   d 4     -0.00012  -0.00000  -0.00002  -0.00201   0.00008   0.00000
 178  H 2   d 5     -0.00008   0.00000  -0.00026  -0.00177   0.00005   0.00000
 179  H 2   f 1      0.00000   0.00000  -0.00000   0.00015  -0.00000  -0.00000
 180  H 2   f 2      0.00000   0.00000   0.00000   0.00013  -0.00000  -0.00000
 181  H 2   f 3      0.00000   0.00000  -0.00000  -0.00001  -0.00000   0.00000
 182  H 2   f 4      0.00000  -0.00000   0.00000   0.00014  -0.00000  -0.00000
 183  H 2   f 5     -0.00000  -0.00000   0.00000   0.00001  -0.00000  -0.00000
 184  H 2   f 6     -0.00000  -0.00000   0.00000  -0.00015   0.00000   0.00000
 185  H 2   f 7     -0.00000   0.00000  -0.00000  -0.00009   0.00000   0.00000
 186  H 2   f 1      0.00002  -0.00000   0.00005   0.00081  -0.00003  -0.00000
 187  H 2   f 2     -0.00000   0.00000   0.00000   0.00068  -0.00000  -0.00000
 188  H 2   f 3     -0.00002   0.00000  -0.00000  -0.00004   0.00002   0.00000
 189  H 2   f 4      0.00001  -0.00000   0.00000   0.00069  -0.00001  -0.00000
 190  H 2   f 5      0.00003  -0.00000   0.00001   0.00008  -0.00003  -0.00000
 191  H 2   f 6      0.00002   0.00000  -0.00004  -0.00080   0.00000   0.00000
 192  H 2   f 7      0.00001   0.00000  -0.00004  -0.00044   0.00001   0.00000
 193  H 2   g 1      0.00000  -0.00000   0.00001   0.00012  -0.00000  -0.00000
 194  H 2   g 2     -0.00000  -0.00000   0.00000   0.00013  -0.00000  -0.00000
 195  H 2   g 3     -0.00000   0.00000  -0.00000   0.00001   0.00000   0.00000
 196  H 2   g 4     -0.00000  -0.00000   0.00000  -0.00005   0.00000   0.00000
 197  H 2   g 5     -0.00000   0.00000  -0.00000   0.00004   0.00000   0.00000
 198  H 2   g 6      0.00000  -0.00000   0.00000   0.00011  -0.00000  -0.00000
 199  H 2   g 7      0.00000  -0.00000  -0.00000  -0.00002  -0.00000  -0.00000
 200  H 2   g 8      0.00000   0.00000  -0.00000  -0.00007   0.00000   0.00000
 201  H 2   g 9      0.00000   0.00000  -0.00000  -0.00002  -0.00000   0.00000
 202  O 2   s       -0.00000   0.97834   0.00000   0.00000  -0.00000   0.00000
 203  O 2   s        0.00000   0.03072   0.00000   0.00000   0.00000   0.00001
 204  O 2   s        0.00000   0.08479   0.00000   0.00000  -0.00000   0.00001
 205  O 2   s        0.00000  -0.01481   0.00000   0.00000  -0.00000  -0.00003
 206  O 2   s       -0.00000  -0.01419  -0.00000  -0.00000   0.00000  -0.00013
 207  O 2   s       -0.00000  -0.00246  -0.00000  -0.00000   0.00000  -0.00011
 208  O 2   px      -0.00000   0.00043  -0.00000  -0.00000  -0.00000   0.00000
 209  O 2   py       0.00000  -0.00111   0.00000   0.00000  -0.00000   0.00000
 210  O 2   pz      -0.00000   0.00032  -0.00000  -0.00000  -0.00000  -0.00000
 211  O 2   px       0.00000   0.00019   0.00000   0.00000   0.00000  -0.00000
 212  O 2   py      -0.00000  -0.00061  -0.00000  -0.00000   0.00000  -0.00000
 213  O 2   pz       0.00000   0.00015   0.00000   0.00000   0.00000   0.00000
 214  O 2   px      -0.00000  -0.00213  -0.00000  -0.00000  -0.00000   0.00001
 215  O 2   py       0.00000   0.00830   0.00000   0.00000  -0.00000   0.00005
 216  O 2   pz      -0.00000  -0.00182  -0.00000  -0.00000  -0.00000  -0.00001
 217  O 2   px      -0.00000   0.00055  -0.00000   0.00000  -0.00000   0.00003
 218  O 2   py       0.00000   0.00130   0.00000   0.00000  -0.00000   0.00008
 219  O 2   pz      -0.00000   0.00008  -0.00000  -0.00000  -0.00000  -0.00001
 220  O 2   px      -0.00000   0.00012   0.00000   0.00000  -0.00000   0.00004
 221  O 2   py       0.00000   0.00024   0.00000   0.00000  -0.00000   0.00005
 222  O 2   pz      -0.00000   0.00006  -0.00000  -0.00000  -0.00000  -0.00001
 223  O 2   d 1     -0.00000   0.00010  -0.00000  -0.00000  -0.00000   0.00000
 224  O 2   d 2     -0.00000   0.00000  -0.00000  -0.00000  -0.00000  -0.00000
 225  O 2   d 3     -0.00000  -0.00019   0.00000  -0.00000   0.00000  -0.00000
 226  O 2   d 4     -0.00000   0.00018  -0.00000   0.00000  -0.00000  -0.00000
 227  O 2   d 5     -0.00000   0.00002   0.00000   0.00000   0.00000   0.00000
 228  O 2   d 1      0.00000  -0.00016   0.00000   0.00000  -0.00000  -0.00000
 229  O 2   d 2     -0.00000  -0.00000   0.00000   0.00000   0.00000   0.00000
 230  O 2   d 3     -0.00000   0.00033  -0.00000  -0.00000   0.00000   0.00000
 231  O 2   d 4      0.00000  -0.00030   0.00000   0.00000   0.00000   0.00000
 232  O 2   d 5      0.00000   0.00001   0.00000   0.00000   0.00000  -0.00000
 233  O 2   d 1     -0.00000  -0.00151  -0.00000  -0.00000   0.00000   0.00001
 234  O 2   d 2      0.00000  -0.00028  -0.00000  -0.00000   0.00000  -0.00001
 235  O 2   d 3      0.00000   0.00194   0.00000   0.00000  -0.00000  -0.00000
 236  O 2   d 4     -0.00000  -0.00188  -0.00000  -0.00000  -0.00000  -0.00002
 237  O 2   d 5     -0.00000  -0.00024  -0.00000  -0.00000  -0.00000   0.00002
 238  O 2   d 1     -0.00000  -0.00008  -0.00000  -0.00000   0.00000   0.00004
 239  O 2   d 2      0.00000  -0.00010  -0.00000  -0.00000   0.00000   0.00002
 240  O 2   d 3      0.00000  -0.00036   0.00000   0.00000  -0.00000  -0.00004
 241  O 2   d 4     -0.00000   0.00048  -0.00000  -0.00000  -0.00000  -0.00000
 242  O 2   d 5     -0.00000   0.00015  -0.00000   0.00000  -0.00000   0.00004
 243  O 2   f 1      0.00000  -0.00003  -0.00000  -0.00000  -0.00000  -0.00000
 244  O 2   f 2      0.00000  -0.00005  -0.00000  -0.00000  -0.00000  -0.00000
 245  O 2   f 3      0.00000   0.00006  -0.00000   0.00000  -0.00000  -0.00000
 246  O 2   f 4     -0.00000  -0.00003   0.00000  -0.00000  -0.00000   0.00000
 247  O 2   f 5      0.00000   0.00003   0.00000  -0.00000  -0.00000  -0.00000
 248  O 2   f 6      0.00000   0.00008   0.00000   0.00000   0.00000   0.00000
 249  O 2   f 7      0.00000   0.00015   0.00000   0.00000  -0.00000  -0.00000
 250  O 2   f 1      0.00000   0.00018   0.00000   0.00000   0.00000   0.00000
 251  O 2   f 2      0.00000   0.00041   0.00000   0.00000   0.00000   0.00000
 252  O 2   f 3     -0.00000  -0.00049  -0.00000  -0.00000   0.00000   0.00000
 253  O 2   f 4      0.00000   0.00021   0.00000   0.00000   0.00000  -0.00000
 254  O 2   f 5     -0.00000  -0.00021  -0.00000  -0.00000   0.00000  -0.00000
 255  O 2   f 6     -0.00000  -0.00064  -0.00000  -0.00000  -0.00000  -0.00000
 256  O 2   f 7     -0.00000  -0.00113  -0.00000  -0.00000   0.00000  -0.00000
 257  O 2   f 1      0.00000  -0.00005   0.00000  -0.00000   0.00000   0.00001
 258  O 2   f 2      0.00000  -0.00018   0.00000   0.00000   0.00000   0.00002
 259  O 2   f 3     -0.00000   0.00018  -0.00000  -0.00000   0.00000   0.00000
 260  O 2   f 4      0.00000  -0.00017  -0.00000  -0.00000   0.00000  -0.00001
 261  O 2   f 5     -0.00000   0.00003  -0.00000  -0.00000   0.00000  -0.00001
 262  O 2   f 6     -0.00000   0.00026  -0.00000  -0.00000  -0.00000   0.00001
 263  O 2   f 7     -0.00000   0.00035  -0.00000  -0.00000   0.00000   0.00003
 264  O 2   g 1      0.00000   0.00012   0.00000   0.00000  -0.00000   0.00000
 265  O 2   g 2      0.00000   0.00005   0.00000   0.00000   0.00000  -0.00000
 266  O 2   g 3      0.00000   0.00005   0.00000   0.00000  -0.00000   0.00000
 267  O 2   g 4     -0.00000   0.00001  -0.00000   0.00000  -0.00000   0.00000
 268  O 2   g 5     -0.00000  -0.00002   0.00000  -0.00000   0.00000  -0.00000
 269  O 2   g 6      0.00000   0.00007   0.00000   0.00000   0.00000   0.00000
 270  O 2   g 7     -0.00000  -0.00005  -0.00000  -0.00000   0.00000  -0.00000
 271  O 2   g 8      0.00000  -0.00003  -0.00000  -0.00000  -0.00000  -0.00000
 272  O 2   g 9      0.00000  -0.00001  -0.00000  -0.00000  -0.00000  -0.00000
 273  O 2   g 1     -0.00000   0.00002  -0.00000  -0.00000  -0.00000   0.00000
 274  O 2   g 2     -0.00000  -0.00004  -0.00000  -0.00000   0.00000   0.00000
 275  O 2   g 3      0.00000   0.00004   0.00000   0.00000  -0.00000  -0.00000
 276  O 2   g 4     -0.00000   0.00004   0.00000   0.00000   0.00000   0.00000
 277  O 2   g 5      0.00000  -0.00002   0.00000  -0.00000   0.00000   0.00000
 278  O 2   g 6      0.00000   0.00003   0.00000   0.00000   0.00000  -0.00000
 279  O 2   g 7     -0.00000  -0.00001   0.00000   0.00000   0.00000  -0.00000
 280  O 2   g 8     -0.00000   0.00000   0.00000   0.00000  -0.00000   0.00001
 281  O 2   g 9     -0.00000   0.00004   0.00000  -0.00000  -0.00000   0.00001
 282  O 2   h 1     -0.00000  -0.00002  -0.00000  -0.00000   0.00000   0.00000
 283  O 2   h 2      0.00000   0.00001  -0.00000  -0.00000   0.00000  -0.00000
 284  O 2   h 3      0.00000   0.00001  -0.00000  -0.00000   0.00000   0.00000
 285  O 2   h 4      0.00000  -0.00003  -0.00000  -0.00000  -0.00000  -0.00000
 286  O 2   h 5      0.00000   0.00002  -0.00000   0.00000  -0.00000  -0.00000
 287  O 2   h 6     -0.00000   0.00001   0.00000   0.00000   0.00000   0.00000
 288  O 2   h 7      0.00000   0.00004   0.00000  -0.00000   0.00000  -0.00000
 289  O 2   h 8     -0.00000   0.00004   0.00000   0.00000   0.00000  -0.00000
 290  O 2   h 9     -0.00000   0.00002  -0.00000  -0.00000  -0.00000  -0.00000
 291  O 2   h10     -0.00000  -0.00004  -0.00000  -0.00000  -0.00000   0.00000
 292  O 2   h11     -0.00000   0.00002  -0.00000  -0.00000  -0.00000   0.00000
 293  H 3   s       -0.00000  -0.00027  -0.00000  -0.00000   0.00000   0.00000
 294  H 3   s       -0.00000  -0.00123  -0.00000  -0.00000   0.00000  -0.00002
 295  H 3   s        0.00000   0.01098   0.00000   0.00000  -0.00000   0.00005
 296  H 3   s        0.00000   0.00237   0.00000   0.00000  -0.00000   0.00013
 297  H 3   s       -0.00000   0.00014   0.00000   0.00000  -0.00000   0.00000
 298  H 3   px       0.00000  -0.00011  -0.00000  -0.00000   0.00000   0.00000
 299  H 3   py      -0.00000  -0.00021  -0.00000  -0.00000   0.00000  -0.00000
 300  H 3   pz       0.00000  -0.00003   0.00000  -0.00000   0.00000   0.00000
 301  H 3   px      -0.00000   0.00019   0.00000  -0.00000   0.00000  -0.00001
 302  H 3   py      -0.00000   0.00031  -0.00000  -0.00000  -0.00000  -0.00000
 303  H 3   pz      -0.00000   0.00005   0.00000  -0.00000   0.00000  -0.00000
 304  H 3   px       0.00000   0.00355   0.00000   0.00000  -0.00000   0.00004
 305  H 3   py       0.00000   0.00782   0.00000   0.00000  -0.00000   0.00004
 306  H 3   pz       0.00000   0.00086  -0.00000   0.00000  -0.00000  -0.00002
 307  H 3   px       0.00000   0.00118   0.00000   0.00000  -0.00000   0.00002
 308  H 3   py       0.00000   0.00247   0.00000   0.00000  -0.00000   0.00006
 309  H 3   pz       0.00000   0.00028   0.00000   0.00000  -0.00000   0.00001
 310  H 3   d 1     -0.00000  -0.00010  -0.00000  -0.00000   0.00000  -0.00000
 311  H 3   d 2     -0.00000  -0.00002   0.00000  -0.00000   0.00000   0.00000
 312  H 3   d 3      0.00000   0.00007   0.00000   0.00000  -0.00000   0.00000
 313  H 3   d 4     -0.00000  -0.00001   0.00000  -0.00000   0.00000  -0.00000
 314  H 3   d 5      0.00000   0.00010   0.00000   0.00000  -0.00000  -0.00000
 315  H 3   d 1      0.00000   0.00177   0.00000   0.00000  -0.00000   0.00001
 316  H 3   d 2      0.00000   0.00042  -0.00000   0.00000  -0.00000  -0.00001
 317  H 3   d 3     -0.00000  -0.00134  -0.00000  -0.00000   0.00000  -0.00001
 318  H 3   d 4      0.00000   0.00020  -0.00000   0.00000  -0.00000  -0.00000
 319  H 3   d 5     -0.00000  -0.00155  -0.00000  -0.00000   0.00000  -0.00000
 320  H 3   d 1      0.00000   0.00213   0.00000   0.00000  -0.00000   0.00003
 321  H 3   d 2      0.00000   0.00053  -0.00000   0.00000  -0.00000  -0.00000
 322  H 3   d 3     -0.00000  -0.00153  -0.00000  -0.00000   0.00000  -0.00002
 323  H 3   d 4      0.00000   0.00022  -0.00000   0.00000  -0.00000  -0.00000
 324  H 3   d 5     -0.00000  -0.00175  -0.00000  -0.00000   0.00000  -0.00002
 325  H 3   f 1     -0.00000  -0.00007  -0.00000  -0.00000   0.00000   0.00000
 326  H 3   f 2      0.00000   0.00004  -0.00000   0.00000  -0.00000  -0.00000
 327  H 3   f 3     -0.00000  -0.00017  -0.00000  -0.00000   0.00000  -0.00000
 328  H 3   f 4     -0.00000  -0.00004   0.00000  -0.00000   0.00000   0.00000
 329  H 3   f 5     -0.00000  -0.00008  -0.00000  -0.00000   0.00000  -0.00000
 330  H 3   f 6     -0.00000  -0.00004   0.00000  -0.00000   0.00000   0.00000
 331  H 3   f 7     -0.00000  -0.00024  -0.00000  -0.00000   0.00000  -0.00000
 332  H 3   f 1     -0.00000  -0.00029  -0.00000  -0.00000  -0.00000  -0.00000
 333  H 3   f 2      0.00000   0.00025  -0.00000   0.00000  -0.00000  -0.00000
 334  H 3   f 3     -0.00000  -0.00080  -0.00000  -0.00000   0.00000  -0.00001
 335  H 3   f 4     -0.00000  -0.00021   0.00000  -0.00000   0.00000   0.00000
 336  H 3   f 5     -0.00000  -0.00036  -0.00000  -0.00000   0.00000  -0.00000
 337  H 3   f 6     -0.00000  -0.00017   0.00000  -0.00000   0.00000   0.00000
 338  H 3   f 7     -0.00000  -0.00110  -0.00000  -0.00000   0.00000  -0.00001
 339  H 3   g 1     -0.00000  -0.00012  -0.00000  -0.00000   0.00000  -0.00000
 340  H 3   g 2     -0.00000  -0.00001   0.00000   0.00000   0.00000   0.00000
 341  H 3   g 3     -0.00000  -0.00007  -0.00000  -0.00000   0.00000  -0.00000
 342  H 3   g 4     -0.00000  -0.00003   0.00000  -0.00000   0.00000   0.00000
 343  H 3   g 5      0.00000   0.00006   0.00000   0.00000  -0.00000   0.00000
 344  H 3   g 6     -0.00000  -0.00002   0.00000  -0.00000   0.00000   0.00000
 345  H 3   g 7      0.00000   0.00007   0.00000   0.00000   0.00000   0.00000
 346  H 3   g 8     -0.00000  -0.00004   0.00000  -0.00000   0.00000   0.00000
 347  H 3   g 9      0.00000  -0.00002   0.00000   0.00000   0.00000  -0.00000
 348  H 4   s        0.00000  -0.00016  -0.00000  -0.00000  -0.00000   0.00000
 349  H 4   s       -0.00000  -0.00158  -0.00000  -0.00000  -0.00000  -0.00002
 350  H 4   s        0.00000   0.00770   0.00000   0.00000   0.00000  -0.00000
 351  H 4   s        0.00000   0.00094   0.00000   0.00000   0.00000   0.00007
 352  H 4   s        0.00000   0.00012  -0.00000  -0.00000   0.00000  -0.00001
 353  H 4   px       0.00000   0.00016   0.00000   0.00000   0.00000  -0.00000
 354  H 4   py       0.00000  -0.00003  -0.00000  -0.00000  -0.00000  -0.00000
 355  H 4   pz       0.00000   0.00008  -0.00000   0.00000   0.00000  -0.00000
 356  H 4   px       0.00000   0.00006   0.00000   0.00000   0.00000   0.00001
 357  H 4   py      -0.00000  -0.00007  -0.00000  -0.00000  -0.00000   0.00000
 358  H 4   pz       0.00000   0.00004   0.00000   0.00000   0.00000   0.00000
 359  H 4   px      -0.00000  -0.00589  -0.00000  -0.00000  -0.00000  -0.00003
 360  H 4   py       0.00000   0.00158   0.00000   0.00000   0.00000  -0.00006
 361  H 4   pz      -0.00000  -0.00286  -0.00000  -0.00000  -0.00000   0.00001
 362  H 4   px      -0.00000  -0.00157  -0.00000  -0.00000  -0.00000  -0.00007
 363  H 4   py       0.00000   0.00039   0.00000   0.00000   0.00000  -0.00002
 364  H 4   pz      -0.00000  -0.00076  -0.00000  -0.00000  -0.00000   0.00003
 365  H 4   d 1      0.00000   0.00010   0.00000   0.00000   0.00000  -0.00000
 366  H 4   d 2      0.00000   0.00005   0.00000   0.00000   0.00000   0.00000
 367  H 4   d 3      0.00000   0.00005   0.00000   0.00000   0.00000   0.00000
 368  H 4   d 4     -0.00000  -0.00015  -0.00000  -0.00000  -0.00000  -0.00000
 369  H 4   d 5     -0.00000  -0.00015  -0.00000  -0.00000  -0.00000  -0.00000
 370  H 4   d 1     -0.00000  -0.00082  -0.00000  -0.00000  -0.00000   0.00001
 371  H 4   d 2     -0.00000  -0.00040  -0.00000  -0.00000  -0.00000  -0.00000
 372  H 4   d 3     -0.00000  -0.00055  -0.00000  -0.00000  -0.00000  -0.00000
 373  H 4   d 4      0.00000   0.00152   0.00000   0.00000   0.00000   0.00000
 374  H 4   d 5      0.00000   0.00145   0.00000   0.00000   0.00000   0.00001
 375  H 4   d 1     -0.00000  -0.00092  -0.00000  -0.00000  -0.00000   0.00002
 376  H 4   d 2     -0.00000  -0.00043  -0.00000  -0.00000  -0.00000   0.00003
 377  H 4   d 3     -0.00000  -0.00059  -0.00000  -0.00000  -0.00000  -0.00002
 378  H 4   d 4      0.00000   0.00172   0.00000   0.00000   0.00000  -0.00000
 379  H 4   d 5      0.00000   0.00171   0.00000   0.00000   0.00000   0.00005
 380  H 4   f 1      0.00000   0.00011   0.00000   0.00000   0.00000  -0.00000
 381  H 4   f 2      0.00000   0.00009   0.00000   0.00000   0.00000  -0.00000
 382  H 4   f 3     -0.00000  -0.00001  -0.00000   0.00000  -0.00000   0.00000
 383  H 4   f 4      0.00000   0.00013   0.00000   0.00000   0.00000   0.00000
 384  H 4   f 5      0.00000   0.00001   0.00000   0.00000   0.00000  -0.00000
 385  H 4   f 6     -0.00000  -0.00016  -0.00000  -0.00000  -0.00000   0.00000
 386  H 4   f 7     -0.00000  -0.00012  -0.00000  -0.00000  -0.00000  -0.00000
 387  H 4   f 1      0.00000   0.00055   0.00000   0.00000   0.00000  -0.00000
 388  H 4   f 2      0.00000   0.00047   0.00000   0.00000   0.00000  -0.00001
 389  H 4   f 3     -0.00000  -0.00004  -0.00000  -0.00000  -0.00000  -0.00000
 390  H 4   f 4      0.00000   0.00064   0.00000   0.00000   0.00000  -0.00000
 391  H 4   f 5      0.00000   0.00008   0.00000  -0.00000   0.00000   0.00001
 392  H 4   f 6     -0.00000  -0.00084  -0.00000  -0.00000  -0.00000  -0.00001
 393  H 4   f 7     -0.00000  -0.00060  -0.00000  -0.00000  -0.00000  -0.00001
 394  H 4   g 1     -0.00000  -0.00009  -0.00000  -0.00000  -0.00000   0.00000
 395  H 4   g 2     -0.00000  -0.00011  -0.00000  -0.00000  -0.00000   0.00000
 396  H 4   g 3      0.00000  -0.00001  -0.00000  -0.00000  -0.00000   0.00000
 397  H 4   g 4      0.00000   0.00004   0.00000   0.00000   0.00000  -0.00000
 398  H 4   g 5      0.00000  -0.00004  -0.00000  -0.00000  -0.00000   0.00000
 399  H 4   g 6     -0.00000  -0.00012  -0.00000  -0.00000  -0.00000  -0.00000
 400  H 4   g 7     -0.00000   0.00003   0.00000   0.00000   0.00000  -0.00000
 401  H 4   g 8      0.00000   0.00011   0.00000   0.00000   0.00000   0.00000
 402  H 4   g 9      0.00000   0.00006   0.00000   0.00000   0.00000   0.00000
 403  O 3   s        0.00000  -0.00001  -0.00000  -0.00000  -0.00000  -0.97857
 404  O 3   s        0.00000  -0.00001   0.00000  -0.00000  -0.00000  -0.03105
 405  O 3   s        0.00000  -0.00002   0.00000  -0.00000  -0.00000  -0.08516
 406  O 3   s        0.00000   0.00005  -0.00000   0.00000   0.00000   0.01514
 407  O 3   s       -0.00000   0.00025   0.00000   0.00000   0.00000   0.01897
 408  O 3   s       -0.00000   0.00007   0.00000   0.00000   0.00000   0.00387
 409  O 3   px      -0.00000   0.00000   0.00000   0.00000   0.00000   0.00015
 410  O 3   py       0.00000   0.00000  -0.00000   0.00000   0.00000   0.00113
 411  O 3   pz       0.00000   0.00000  -0.00000  -0.00000   0.00000   0.00034
 412  O 3   px       0.00000  -0.00001  -0.00000  -0.00000  -0.00000   0.00006
 413  O 3   py      -0.00000  -0.00000   0.00000   0.00000   0.00000   0.00047
 414  O 3   pz      -0.00000   0.00000   0.00000   0.00000   0.00000   0.00015
 415  O 3   px      -0.00000   0.00009   0.00000   0.00000   0.00000  -0.00087
 416  O 3   py       0.00000  -0.00005  -0.00000  -0.00000  -0.00000  -0.00754
 417  O 3   pz       0.00000  -0.00004  -0.00000  -0.00000  -0.00000  -0.00233
 418  O 3   px      -0.00000   0.00007   0.00000   0.00000   0.00000  -0.00009
 419  O 3   py       0.00000  -0.00006  -0.00000  -0.00000  -0.00000  -0.00163
 420  O 3   pz       0.00000  -0.00013  -0.00000  -0.00000  -0.00000  -0.00055
 421  O 3   px       0.00000   0.00001   0.00000   0.00000   0.00000  -0.00001
 422  O 3   py       0.00000   0.00002  -0.00000   0.00000  -0.00000  -0.00019
 423  O 3   pz       0.00000   0.00001  -0.00000  -0.00000  -0.00000  -0.00006
 424  O 3   d 1     -0.00000   0.00000   0.00000   0.00000   0.00000   0.00003
 425  O 3   d 2      0.00000   0.00000   0.00000  -0.00000  -0.00000  -0.00008
 426  O 3   d 3      0.00000   0.00000  -0.00000   0.00000   0.00000   0.00023
 427  O 3   d 4     -0.00000   0.00000   0.00000  -0.00000   0.00000   0.00006
 428  O 3   d 5     -0.00000  -0.00000   0.00000   0.00000  -0.00000  -0.00017
 429  O 3   d 1      0.00000  -0.00000   0.00000  -0.00000   0.00000  -0.00004
 430  O 3   d 2      0.00000  -0.00000  -0.00000   0.00000   0.00000   0.00015
 431  O 3   d 3     -0.00000  -0.00000   0.00000  -0.00000  -0.00000  -0.00036
 432  O 3   d 4      0.00000  -0.00000   0.00000   0.00000  -0.00000  -0.00009
 433  O 3   d 5      0.00000   0.00000  -0.00000  -0.00000   0.00000   0.00022
 434  O 3   d 1      0.00000  -0.00002  -0.00000  -0.00000  -0.00000  -0.00068
 435  O 3   d 2     -0.00000   0.00003   0.00000   0.00000   0.00000   0.00073
 436  O 3   d 3      0.00000  -0.00000  -0.00000  -0.00000  -0.00000  -0.00297
 437  O 3   d 4      0.00000  -0.00002  -0.00000  -0.00000  -0.00000  -0.00093
 438  O 3   d 5     -0.00000   0.00000   0.00000   0.00000   0.00000   0.00337
 439  O 3   d 1      0.00000   0.00002  -0.00000  -0.00000  -0.00000  -0.00000
 440  O 3   d 2     -0.00000   0.00003   0.00000   0.00000   0.00000  -0.00006
 441  O 3   d 3      0.00000   0.00005  -0.00000  -0.00000  -0.00000   0.00021
 442  O 3   d 4      0.00000  -0.00001  -0.00000  -0.00000  -0.00000   0.00005
 443  O 3   d 5     -0.00000  -0.00003  -0.00000   0.00000  -0.00000  -0.00014
 444  O 3   f 1     -0.00000  -0.00000   0.00000   0.00000   0.00000   0.00018
 445  O 3   f 2      0.00000  -0.00000  -0.00000  -0.00000  -0.00000  -0.00004
 446  O 3   f 3      0.00000   0.00000  -0.00000  -0.00000  -0.00000  -0.00005
 447  O 3   f 4      0.00000  -0.00000  -0.00000  -0.00000  -0.00000  -0.00004
 448  O 3   f 5     -0.00000  -0.00000   0.00000   0.00000   0.00000  -0.00002
 449  O 3   f 6     -0.00000   0.00000   0.00000  -0.00000   0.00000   0.00003
 450  O 3   f 7     -0.00000  -0.00000   0.00000   0.00000   0.00000   0.00006
 451  O 3   f 1      0.00000  -0.00000  -0.00000  -0.00000  -0.00000  -0.00142
 452  O 3   f 2     -0.00000   0.00000   0.00000   0.00000   0.00000   0.00036
 453  O 3   f 3     -0.00000   0.00000   0.00000   0.00000   0.00000   0.00045
 454  O 3   f 4     -0.00000   0.00001   0.00000   0.00000   0.00000   0.00037
 455  O 3   f 5      0.00000  -0.00000  -0.00000  -0.00000  -0.00000   0.00020
 456  O 3   f 6      0.00000  -0.00000  -0.00000  -0.00000  -0.00000  -0.00023
 457  O 3   f 7      0.00000  -0.00000  -0.00000  -0.00000  -0.00000  -0.00049
 458  O 3   f 1      0.00000   0.00001  -0.00000  -0.00000   0.00000   0.00055
 459  O 3   f 2     -0.00000  -0.00000   0.00000   0.00000   0.00000  -0.00013
 460  O 3   f 3     -0.00000  -0.00002   0.00000  -0.00000   0.00000  -0.00016
 461  O 3   f 4     -0.00000   0.00001   0.00000   0.00000   0.00000  -0.00012
 462  O 3   f 5     -0.00000   0.00001  -0.00000  -0.00000  -0.00000  -0.00008
 463  O 3   f 6      0.00000  -0.00000  -0.00000  -0.00000   0.00000   0.00009
 464  O 3   f 7      0.00000   0.00002  -0.00000  -0.00000   0.00000   0.00020
 465  O 3   g 1      0.00000  -0.00000  -0.00000  -0.00000  -0.00000   0.00005
 466  O 3   g 2     -0.00000   0.00000   0.00000   0.00000   0.00000   0.00007
 467  O 3   g 3     -0.00000   0.00000   0.00000   0.00000   0.00000  -0.00002
 468  O 3   g 4      0.00000  -0.00000  -0.00000  -0.00000  -0.00000  -0.00004
 469  O 3   g 5     -0.00000   0.00000  -0.00000   0.00000   0.00000   0.00006
 470  O 3   g 6     -0.00000   0.00000   0.00000   0.00000   0.00000   0.00003
 471  O 3   g 7      0.00000   0.00000   0.00000   0.00000  -0.00000  -0.00005
 472  O 3   g 8     -0.00000   0.00000   0.00000   0.00000   0.00000   0.00003
 473  O 3   g 9      0.00000  -0.00000  -0.00000  -0.00000  -0.00000  -0.00009
 474  O 3   g 1      0.00000  -0.00000  -0.00000  -0.00000  -0.00000  -0.00010
 475  O 3   g 2     -0.00000  -0.00000   0.00000  -0.00000   0.00000   0.00002
 476  O 3   g 3     -0.00000  -0.00000   0.00000  -0.00000   0.00000   0.00003
 477  O 3   g 4      0.00000   0.00000  -0.00000   0.00000  -0.00000  -0.00002
 478  O 3   g 5     -0.00000  -0.00001   0.00000   0.00000   0.00000   0.00010
 479  O 3   g 6     -0.00000  -0.00000   0.00000   0.00000   0.00000   0.00008
 480  O 3   g 7      0.00000   0.00000  -0.00000  -0.00000  -0.00000  -0.00015
 481  O 3   g 8      0.00000  -0.00000   0.00000  -0.00000  -0.00000  -0.00007
 482  O 3   g 9      0.00000   0.00000  -0.00000   0.00000   0.00000   0.00021
 483  O 3   h 1      0.00000   0.00000   0.00000  -0.00000  -0.00000  -0.00009
 484  O 3   h 2     -0.00000   0.00000   0.00000   0.00000   0.00000   0.00003
 485  O 3   h 3     -0.00000  -0.00000   0.00000   0.00000   0.00000   0.00007
 486  O 3   h 4      0.00000   0.00000  -0.00000  -0.00000  -0.00000  -0.00004
 487  O 3   h 5      0.00000   0.00000   0.00000   0.00000  -0.00000  -0.00002
 488  O 3   h 6      0.00000   0.00000  -0.00000  -0.00000  -0.00000  -0.00004
 489  O 3   h 7     -0.00000  -0.00000   0.00000  -0.00000  -0.00000  -0.00003
 490  O 3   h 8     -0.00000  -0.00000   0.00000   0.00000   0.00000   0.00002
 491  O 3   h 9      0.00000  -0.00000   0.00000   0.00000   0.00000   0.00003
 492  O 3   h10     -0.00000  -0.00000   0.00000   0.00000   0.00000   0.00002
 493  O 3   h11      0.00000   0.00000  -0.00000  -0.00000  -0.00000  -0.00005
 494  H 5   s       -0.00000  -0.00000  -0.00000   0.00000   0.00000   0.00026
 495  H 5   s       -0.00000   0.00001  -0.00000  -0.00000  -0.00000   0.00141
 496  H 5   s        0.00000   0.00005   0.00000   0.00000   0.00000  -0.01178
 497  H 5   s        0.00000  -0.00006  -0.00000   0.00000   0.00000  -0.00218
 498  H 5   s       -0.00000  -0.00002   0.00000   0.00000   0.00000  -0.00014
 499  H 5   px      -0.00000  -0.00000  -0.00000   0.00000   0.00000   0.00020
 500  H 5   py      -0.00000  -0.00000   0.00000   0.00000   0.00000   0.00011
 501  H 5   pz      -0.00000  -0.00000  -0.00000   0.00000   0.00000   0.00002
 502  H 5   px       0.00000   0.00001   0.00000  -0.00000  -0.00000  -0.00026
 503  H 5   py       0.00000   0.00001  -0.00000  -0.00000  -0.00000  -0.00021
 504  H 5   pz       0.00000   0.00000   0.00000   0.00000  -0.00000  -0.00005
 505  H 5   px       0.00000  -0.00000   0.00000   0.00000   0.00000  -0.00815
 506  H 5   py       0.00000   0.00000   0.00000   0.00000  -0.00000  -0.00402
 507  H 5   pz       0.00000   0.00001   0.00000  -0.00000  -0.00000  -0.00059
 508  H 5   px       0.00000  -0.00006   0.00000   0.00000   0.00000  -0.00247
 509  H 5   py       0.00000   0.00004   0.00000   0.00000   0.00000  -0.00111
 510  H 5   pz       0.00000   0.00004   0.00000  -0.00000  -0.00000  -0.00014
 511  H 5   d 1      0.00000   0.00000  -0.00000  -0.00000   0.00000   0.00009
 512  H 5   d 2     -0.00000  -0.00000  -0.00000   0.00000   0.00000   0.00002
 513  H 5   d 3      0.00000   0.00000   0.00000   0.00000  -0.00000  -0.00009
 514  H 5   d 4      0.00000   0.00000   0.00000   0.00000  -0.00000   0.00001
 515  H 5   d 5     -0.00000  -0.00000  -0.00000  -0.00000  -0.00000   0.00007
 516  H 5   d 1      0.00000  -0.00000   0.00000   0.00000  -0.00000  -0.00194
 517  H 5   d 2      0.00000   0.00001   0.00000  -0.00000  -0.00000  -0.00023
 518  H 5   d 3     -0.00000  -0.00000  -0.00000  -0.00000   0.00000   0.00147
 519  H 5   d 4     -0.00000  -0.00000   0.00000  -0.00000  -0.00000  -0.00029
 520  H 5   d 5      0.00000   0.00000   0.00000   0.00000   0.00000  -0.00137
 521  H 5   d 1      0.00000   0.00001   0.00000   0.00000   0.00000  -0.00220
 522  H 5   d 2     -0.00000  -0.00000  -0.00000  -0.00000  -0.00000  -0.00017
 523  H 5   d 3     -0.00000   0.00001  -0.00000  -0.00000  -0.00000   0.00162
 524  H 5   d 4      0.00000   0.00003   0.00000  -0.00000  -0.00000  -0.00031
 525  H 5   d 5      0.00000  -0.00004   0.00000   0.00000   0.00000  -0.00172
 526  H 5   f 1      0.00000  -0.00000   0.00000   0.00000  -0.00000  -0.00026
 527  H 5   f 2      0.00000  -0.00000   0.00000  -0.00000  -0.00000  -0.00004
 528  H 5   f 3     -0.00000   0.00000  -0.00000  -0.00000   0.00000   0.00009
 529  H 5   f 4      0.00000   0.00000  -0.00000   0.00000   0.00000   0.00003
 530  H 5   f 5     -0.00000  -0.00000  -0.00000  -0.00000   0.00000   0.00018
 531  H 5   f 6     -0.00000  -0.00000   0.00000  -0.00000  -0.00000  -0.00003
 532  H 5   f 7      0.00000   0.00000   0.00000   0.00000   0.00000  -0.00004
 533  H 5   f 1      0.00000   0.00000   0.00000   0.00000  -0.00000  -0.00106
 534  H 5   f 2     -0.00000   0.00000  -0.00000  -0.00000  -0.00000  -0.00019
 535  H 5   f 3     -0.00000  -0.00000  -0.00000  -0.00000   0.00000   0.00044
 536  H 5   f 4     -0.00000  -0.00001  -0.00000   0.00000   0.00000   0.00018
 537  H 5   f 5     -0.00000   0.00000  -0.00000  -0.00000   0.00000   0.00083
 538  H 5   f 6     -0.00000   0.00001   0.00000  -0.00000   0.00000  -0.00005
 539  H 5   f 7      0.00000  -0.00001   0.00000   0.00000   0.00000  -0.00018
 540  H 5   g 1      0.00000  -0.00000   0.00000   0.00000  -0.00000  -0.00012
 541  H 5   g 2     -0.00000   0.00000   0.00000  -0.00000  -0.00000  -0.00003
 542  H 5   g 3     -0.00000   0.00000  -0.00000  -0.00000   0.00000   0.00008
 543  H 5   g 4     -0.00000  -0.00000  -0.00000   0.00000  -0.00000   0.00001
 544  H 5   g 5      0.00000  -0.00000   0.00000   0.00000  -0.00000  -0.00007
 545  H 5   g 6      0.00000  -0.00000  -0.00000   0.00000   0.00000   0.00003
 546  H 5   g 7     -0.00000   0.00000  -0.00000  -0.00000   0.00000   0.00006
 547  H 5   g 8     -0.00000   0.00000   0.00000  -0.00000   0.00000   0.00000
 548  H 5   g 9      0.00000  -0.00000  -0.00000   0.00000   0.00000   0.00004
 549  H 6   s       -0.00000  -0.00000   0.00000   0.00000   0.00000   0.00028
 550  H 6   s       -0.00000   0.00005   0.00000   0.00000   0.00000   0.00131
 551  H 6   s        0.00000  -0.00019  -0.00000  -0.00000  -0.00000  -0.01220
 552  H 6   s        0.00000  -0.00009  -0.00000  -0.00000  -0.00000  -0.00231
 553  H 6   s       -0.00000  -0.00002  -0.00000  -0.00000  -0.00000  -0.00015
 554  H 6   px       0.00000   0.00000  -0.00000  -0.00000  -0.00000  -0.00017
 555  H 6   py      -0.00000  -0.00000   0.00000   0.00000   0.00000   0.00016
 556  H 6   pz      -0.00000  -0.00000   0.00000   0.00000   0.00000   0.00006
 557  H 6   px      -0.00000  -0.00001   0.00000   0.00000   0.00000   0.00026
 558  H 6   py       0.00000   0.00001  -0.00000  -0.00000  -0.00000  -0.00031
 559  H 6   pz       0.00000   0.00000  -0.00000  -0.00000  -0.00000  -0.00012
 560  H 6   px      -0.00000   0.00012   0.00000   0.00000   0.00000   0.00698
 561  H 6   py       0.00000  -0.00010  -0.00000  -0.00000  -0.00000  -0.00572
 562  H 6   pz       0.00000   0.00001  -0.00000  -0.00000  -0.00000  -0.00237
 563  H 6   px      -0.00000   0.00008   0.00000   0.00000   0.00000   0.00217
 564  H 6   py       0.00000  -0.00007  -0.00000  -0.00000  -0.00000  -0.00165
 565  H 6   pz       0.00000   0.00003  -0.00000  -0.00000  -0.00000  -0.00069
 566  H 6   d 1      0.00000  -0.00000  -0.00000  -0.00000  -0.00000  -0.00009
 567  H 6   d 2     -0.00000   0.00000   0.00000   0.00000   0.00000   0.00005
 568  H 6   d 3      0.00000  -0.00000  -0.00000  -0.00000  -0.00000  -0.00007
 569  H 6   d 4      0.00000  -0.00000  -0.00000  -0.00000  -0.00000  -0.00004
 570  H 6   d 5     -0.00000   0.00000   0.00000   0.00000   0.00000   0.00002
 571  H 6   d 1     -0.00000   0.00002   0.00000   0.00000   0.00000   0.00221
 572  H 6   d 2      0.00000  -0.00000  -0.00000  -0.00000  -0.00000  -0.00085
 573  H 6   d 3     -0.00000   0.00002   0.00000   0.00000   0.00000   0.00124
 574  H 6   d 4     -0.00000   0.00001   0.00000   0.00000   0.00000   0.00093
 575  H 6   d 5      0.00000  -0.00000  -0.00000  -0.00000  -0.00000  -0.00036
 576  H 6   d 1     -0.00000   0.00008   0.00000   0.00000   0.00000   0.00260
 577  H 6   d 2      0.00000  -0.00000  -0.00000  -0.00000  -0.00000  -0.00089
 578  H 6   d 3     -0.00000   0.00004   0.00000   0.00000   0.00000   0.00135
 579  H 6   d 4     -0.00000  -0.00002   0.00000   0.00000   0.00000   0.00108
 580  H 6   d 5      0.00000  -0.00001  -0.00000   0.00000  -0.00000  -0.00055
 581  H 6   f 1      0.00000  -0.00000  -0.00000  -0.00000  -0.00000  -0.00021
 582  H 6   f 2     -0.00000   0.00000   0.00000   0.00000   0.00000   0.00016
 583  H 6   f 3     -0.00000   0.00000   0.00000   0.00000   0.00000   0.00008
 584  H 6   f 4     -0.00000   0.00000   0.00000   0.00000   0.00000   0.00011
 585  H 6   f 5      0.00000  -0.00000  -0.00000  -0.00000  -0.00000  -0.00011
 586  H 6   f 6      0.00000  -0.00000  -0.00000  -0.00000  -0.00000  -0.00003
 587  H 6   f 7      0.00000  -0.00000  -0.00000  -0.00000  -0.00000  -0.00013
 588  H 6   f 1      0.00000  -0.00002  -0.00000  -0.00000  -0.00000  -0.00084
 589  H 6   f 2     -0.00000   0.00000   0.00000   0.00000   0.00000   0.00067
 590  H 6   f 3     -0.00000   0.00001   0.00000   0.00000   0.00000   0.00042
 591  H 6   f 4     -0.00000  -0.00000   0.00000   0.00000   0.00000   0.00056
 592  H 6   f 5      0.00000  -0.00001  -0.00000  -0.00000  -0.00000  -0.00048
 593  H 6   f 6      0.00000   0.00000  -0.00000   0.00000  -0.00000  -0.00007
 594  H 6   f 7      0.00000  -0.00001  -0.00000  -0.00000  -0.00000  -0.00046
 595  H 6   g 1     -0.00000   0.00000   0.00000  -0.00000   0.00000   0.00004
 596  H 6   g 2      0.00000  -0.00000  -0.00000  -0.00000  -0.00000  -0.00007
 597  H 6   g 3      0.00000  -0.00000  -0.00000  -0.00000  -0.00000  -0.00005
 598  H 6   g 4     -0.00000   0.00000   0.00000   0.00000   0.00000   0.00006
 599  H 6   g 5      0.00000  -0.00000  -0.00000  -0.00000  -0.00000  -0.00003
 600  H 6   g 6      0.00000   0.00000  -0.00000  -0.00000  -0.00000  -0.00007
 601  H 6   g 7     -0.00000   0.00000   0.00000   0.00000   0.00000   0.00001
 602  H 6   g 8      0.00000  -0.00000  -0.00000  -0.00000  -0.00000  -0.00004
 603  H 6   g 9     -0.00000   0.00000   0.00000   0.00000   0.00000   0.00010
 604  O 4   s       -0.00002   0.00000   0.00001  -0.00000   0.97847  -0.00000
 605  O 4   s       -0.00004  -0.00000   0.00001  -0.00002   0.03090  -0.00000
 606  O 4   s       -0.00005  -0.00000   0.00001  -0.00003   0.08502  -0.00000
 607  O 4   s        0.00016  -0.00000  -0.00001   0.00007  -0.01509   0.00000
 608  O 4   s       -0.00078   0.00000  -0.00024   0.00044  -0.01655   0.00000
 609  O 4   s       -0.00109   0.00000  -0.00017   0.00030  -0.00127   0.00000
 610  O 4   px      -0.00000  -0.00000   0.00000   0.00000   0.00044  -0.00000
 611  O 4   py      -0.00000  -0.00000   0.00000   0.00000  -0.00107   0.00000
 612  O 4   pz      -0.00000   0.00000   0.00000   0.00000   0.00014  -0.00000
 613  O 4   px       0.00002   0.00000  -0.00001   0.00000   0.00013   0.00000
 614  O 4   py       0.00003   0.00000  -0.00001   0.00000  -0.00071   0.00000
 615  O 4   pz       0.00003  -0.00000  -0.00000  -0.00001   0.00011  -0.00000
 616  O 4   px      -0.00025  -0.00000   0.00005   0.00002  -0.00224  -0.00000
 617  O 4   py      -0.00008  -0.00000   0.00007  -0.00011   0.00892  -0.00000
 618  O 4   pz      -0.00009   0.00000  -0.00000   0.00005  -0.00136   0.00000
 619  O 4   px       0.00039  -0.00000  -0.00010  -0.00017  -0.00109  -0.00000
 620  O 4   py       0.00052  -0.00000   0.00003   0.00002   0.00086  -0.00000
 621  O 4   pz       0.00004   0.00000  -0.00005   0.00008   0.00004   0.00000
 622  O 4   px       0.00008  -0.00000  -0.00004   0.00000  -0.00030  -0.00000
 623  O 4   py       0.00015  -0.00000   0.00001  -0.00003  -0.00012  -0.00000
 624  O 4   pz       0.00001   0.00000  -0.00000   0.00001   0.00003   0.00000
 625  O 4   d 1     -0.00000  -0.00000   0.00000   0.00000   0.00007  -0.00000
 626  O 4   d 2      0.00000   0.00000   0.00000  -0.00000  -0.00006   0.00000
 627  O 4   d 3      0.00000   0.00000  -0.00000   0.00000  -0.00025   0.00000
 628  O 4   d 4      0.00000  -0.00000   0.00000  -0.00000  -0.00003   0.00000
 629  O 4   d 5      0.00000   0.00000   0.00000   0.00000   0.00009  -0.00000
 630  O 4   d 1      0.00001  -0.00000   0.00000  -0.00000  -0.00009  -0.00000
 631  O 4   d 2     -0.00002  -0.00000   0.00000   0.00000   0.00011   0.00000
 632  O 4   d 3     -0.00000   0.00000   0.00000  -0.00001   0.00043  -0.00000
 633  O 4   d 4     -0.00001   0.00000  -0.00000   0.00000   0.00005   0.00000
 634  O 4   d 5      0.00000  -0.00000  -0.00000  -0.00000  -0.00011   0.00000
 635  O 4   d 1      0.00007   0.00000  -0.00003   0.00004  -0.00145   0.00000
 636  O 4   d 2      0.00009  -0.00000  -0.00000  -0.00004   0.00065  -0.00000
 637  O 4   d 3      0.00002  -0.00000   0.00001  -0.00001   0.00277  -0.00000
 638  O 4   d 4      0.00007  -0.00000   0.00001  -0.00004   0.00047  -0.00000
 639  O 4   d 5     -0.00008  -0.00000   0.00000   0.00001  -0.00125  -0.00000
 640  O 4   d 1     -0.00001   0.00000   0.00004   0.00011   0.00038   0.00000
 641  O 4   d 2     -0.00006  -0.00000   0.00002  -0.00003  -0.00023  -0.00000
 642  O 4   d 3     -0.00002  -0.00000  -0.00000   0.00003  -0.00059  -0.00000
 643  O 4   d 4     -0.00006  -0.00000  -0.00000  -0.00006  -0.00015  -0.00000
 644  O 4   d 5      0.00015  -0.00000  -0.00002   0.00009   0.00013  -0.00000
 645  O 4   f 1     -0.00000  -0.00000  -0.00000  -0.00000  -0.00008   0.00000
 646  O 4   f 2      0.00001   0.00000  -0.00000  -0.00000   0.00003  -0.00000
 647  O 4   f 3      0.00000  -0.00000   0.00000  -0.00000   0.00006  -0.00000
 648  O 4   f 4     -0.00001  -0.00000   0.00000   0.00000  -0.00003   0.00000
 649  O 4   f 5     -0.00000  -0.00000   0.00000   0.00000  -0.00003  -0.00000
 650  O 4   f 6     -0.00000  -0.00000   0.00000   0.00000  -0.00001   0.00000
 651  O 4   f 7     -0.00000  -0.00000   0.00000   0.00000   0.00015  -0.00000
 652  O 4   f 1      0.00002  -0.00000   0.00000   0.00001   0.00068  -0.00000
 653  O 4   f 2     -0.00003   0.00000   0.00000   0.00001  -0.00027   0.00000
 654  O 4   f 3      0.00001   0.00000  -0.00000   0.00001  -0.00055   0.00000
 655  O 4   f 4      0.00002  -0.00000  -0.00000  -0.00001   0.00023  -0.00000
 656  O 4   f 5      0.00002   0.00000  -0.00000  -0.00000   0.00023   0.00000
 657  O 4   f 6      0.00002   0.00000  -0.00000  -0.00000   0.00009  -0.00000
 658  O 4   f 7      0.00001   0.00000  -0.00001   0.00000  -0.00121   0.00000
 659  O 4   f 1     -0.00004  -0.00000  -0.00000  -0.00001  -0.00037   0.00000
 660  O 4   f 2      0.00005   0.00000  -0.00000   0.00004   0.00013   0.00000
 661  O 4   f 3      0.00002   0.00000   0.00000  -0.00003   0.00029   0.00000
 662  O 4   f 4     -0.00004  -0.00000   0.00000  -0.00000  -0.00014  -0.00000
 663  O 4   f 5     -0.00001   0.00000   0.00000   0.00001  -0.00004   0.00000
 664  O 4   f 6      0.00004  -0.00000  -0.00000  -0.00000  -0.00002  -0.00000
 665  O 4   f 7      0.00008   0.00000   0.00001   0.00001   0.00036   0.00000
 666  O 4   g 1      0.00000  -0.00000   0.00000  -0.00000   0.00015  -0.00000
 667  O 4   g 2      0.00000  -0.00000  -0.00000   0.00000   0.00001  -0.00000
 668  O 4   g 3     -0.00000  -0.00000   0.00000   0.00000   0.00002  -0.00000
 669  O 4   g 4     -0.00000   0.00000  -0.00000   0.00000  -0.00004   0.00000
 670  O 4   g 5      0.00000   0.00000  -0.00000   0.00000  -0.00008   0.00000
 671  O 4   g 6     -0.00000  -0.00000   0.00000  -0.00000  -0.00002   0.00000
 672  O 4   g 7      0.00000   0.00000  -0.00000   0.00000   0.00003  -0.00000
 673  O 4   g 8     -0.00000   0.00000  -0.00000   0.00000  -0.00004   0.00000
 674  O 4   g 9      0.00000  -0.00000   0.00000   0.00000   0.00003  -0.00000
 675  O 4   g 1     -0.00003   0.00000  -0.00000   0.00001  -0.00007  -0.00000
 676  O 4   g 2     -0.00002  -0.00000   0.00000  -0.00000   0.00001   0.00000
 677  O 4   g 3     -0.00001  -0.00000   0.00000  -0.00000   0.00003  -0.00000
 678  O 4   g 4     -0.00000  -0.00000   0.00000   0.00000   0.00000   0.00000
 679  O 4   g 5      0.00000   0.00000   0.00000  -0.00001  -0.00003   0.00000
 680  O 4   g 6      0.00000  -0.00000  -0.00000   0.00001  -0.00002   0.00000
 681  O 4   g 7      0.00000  -0.00000  -0.00000  -0.00000   0.00007  -0.00000
 682  O 4   g 8      0.00001  -0.00000   0.00000   0.00000   0.00001   0.00000
 683  O 4   g 9     -0.00001   0.00000  -0.00000   0.00000  -0.00006  -0.00000
 684  O 4   h 1      0.00000  -0.00000  -0.00000   0.00000   0.00000   0.00000
 685  O 4   h 2     -0.00000   0.00000  -0.00000   0.00000   0.00001  -0.00000
 686  O 4   h 3     -0.00000  -0.00000   0.00000  -0.00000  -0.00003   0.00000
 687  O 4   h 4     -0.00000   0.00000  -0.00000  -0.00000   0.00002  -0.00000
 688  O 4   h 5     -0.00000   0.00000   0.00000   0.00000   0.00003  -0.00000
 689  O 4   h 6      0.00000  -0.00000   0.00000  -0.00000  -0.00002   0.00000
 690  O 4   h 7     -0.00000  -0.00000   0.00000   0.00000  -0.00002   0.00000
 691  O 4   h 8     -0.00000  -0.00000   0.00000   0.00000  -0.00001   0.00000
 692  O 4   h 9     -0.00000   0.00000   0.00000   0.00000   0.00006  -0.00000
 693  O 4   h10     -0.00000   0.00000   0.00000  -0.00000   0.00002  -0.00000
 694  O 4   h11     -0.00000   0.00000  -0.00000   0.00000  -0.00003   0.00000
 695  H 7   s       -0.00001  -0.00000   0.00000  -0.00000  -0.00018   0.00000
 696  H 7   s        0.00003   0.00000  -0.00005   0.00004  -0.00201   0.00000
 697  H 7   s        0.00009  -0.00000   0.00009  -0.00021   0.01079  -0.00000
 698  H 7   s        0.00017  -0.00000   0.00020  -0.00049   0.00160  -0.00000
 699  H 7   s        0.00024  -0.00000  -0.00003   0.00003  -0.00044   0.00000
 700  H 7   px       0.00002  -0.00000  -0.00000  -0.00000  -0.00011   0.00000
 701  H 7   py       0.00002  -0.00000  -0.00000  -0.00000  -0.00018   0.00000
 702  H 7   pz      -0.00001   0.00000   0.00000  -0.00000   0.00003  -0.00000
 703  H 7   px      -0.00009   0.00000   0.00000   0.00001   0.00001  -0.00000
 704  H 7   py      -0.00010   0.00000   0.00001   0.00002  -0.00003  -0.00000
 705  H 7   pz       0.00002  -0.00000   0.00000   0.00001   0.00001   0.00000
 706  H 7   px       0.00015  -0.00000   0.00003  -0.00003   0.00479  -0.00000
 707  H 7   py       0.00010  -0.00000   0.00005  -0.00019   0.00758  -0.00000
 708  H 7   pz      -0.00001   0.00000  -0.00001  -0.00004  -0.00143   0.00000
 709  H 7   px       0.00106  -0.00000  -0.00002  -0.00010   0.00134  -0.00000
 710  H 7   py       0.00121  -0.00000  -0.00001  -0.00018   0.00153  -0.00000
 711  H 7   pz      -0.00050   0.00000   0.00004  -0.00004  -0.00036   0.00000
 712  H 7   d 1      0.00001   0.00000   0.00000   0.00000  -0.00016   0.00000
 713  H 7   d 2     -0.00001  -0.00000   0.00000   0.00000   0.00005  -0.00000
 714  H 7   d 3      0.00000  -0.00000  -0.00000  -0.00000   0.00011  -0.00000
 715  H 7   d 4     -0.00001  -0.00000   0.00000  -0.00000   0.00003  -0.00000
 716  H 7   d 5     -0.00001  -0.00000   0.00000  -0.00000   0.00012  -0.00000
 717  H 7   d 1     -0.00003  -0.00000   0.00000  -0.00003   0.00204  -0.00000
 718  H 7   d 2      0.00004   0.00000  -0.00002  -0.00002  -0.00060   0.00000
 719  H 7   d 3     -0.00001   0.00000   0.00001   0.00001  -0.00133   0.00000
 720  H 7   d 4      0.00005   0.00000  -0.00002   0.00001  -0.00035   0.00000
 721  H 7   d 5      0.00004   0.00000  -0.00003   0.00001  -0.00116   0.00000
 722  H 7   d 1     -0.00018  -0.00000   0.00009  -0.00006   0.00312  -0.00000
 723  H 7   d 2      0.00009   0.00000   0.00000  -0.00000  -0.00095   0.00000
 724  H 7   d 3      0.00008   0.00000  -0.00007   0.00006  -0.00174   0.00000
 725  H 7   d 4      0.00012   0.00000   0.00001  -0.00005  -0.00065   0.00000
 726  H 7   d 5     -0.00009   0.00000   0.00001   0.00010  -0.00109   0.00000
[...]
 954  H 10  s        0.13755  -0.00000   0.02844   0.12403   0.00000
 955  H 10  s        0.39214   0.00000  -1.09428  -0.63029  -0.00000
 956  H 10  px      -0.00009   0.00000   0.00016  -0.00016  -0.00000
 957  H 10  py      -0.00034   0.00000   0.00059   0.00017  -0.00000
 958  H 10  pz      -0.00129   0.00000   0.00317   0.00149  -0.00000
 959  H 10  px       0.00057   0.00000  -0.00061   0.00001   0.00000
 960  H 10  py      -0.00082  -0.00000   0.00027   0.00079   0.00000
 961  H 10  pz       0.00093  -0.00000  -0.00624  -0.00198   0.00000
 962  H 10  px      -0.00413  -0.00000   0.00182   0.00730  -0.00000
 963  H 10  py       0.01802  -0.00000  -0.02010  -0.01473   0.00000
 964  H 10  pz       0.01783  -0.00000  -0.01052   0.01431   0.00000
 965  H 10  px       0.00483  -0.00000  -0.01925   0.03893   0.00000
 966  H 10  py       0.02836  -0.00000   0.01747   0.01702   0.00000
 967  H 10  pz       0.04222  -0.00000   0.00527   0.04601   0.00000
 968  H 10  d 1      0.00002   0.00000  -0.00004   0.00004   0.00000
 969  H 10  d 2     -0.00055   0.00000   0.00062   0.00055   0.00000
 970  H 10  d 3     -0.00015  -0.00000   0.00024   0.00002  -0.00000
 971  H 10  d 4      0.00011   0.00000   0.00006  -0.00021   0.00000
 972  H 10  d 5      0.00002   0.00000  -0.00034  -0.00004   0.00000
 973  H 10  d 1     -0.00028   0.00000   0.00028   0.00009  -0.00000
 974  H 10  d 2      0.00455  -0.00000  -0.00682  -0.00418   0.00000
 975  H 10  d 3      0.00270  -0.00000  -0.00500   0.00016   0.00000
 976  H 10  d 4     -0.00077   0.00000   0.00016   0.00136  -0.00000
 977  H 10  d 5     -0.00062   0.00000   0.00234   0.00085  -0.00000
 978  H 10  d 1      0.00001  -0.00000  -0.00190   0.00554  -0.00000
 979  H 10  d 2      0.00913  -0.00000   0.00423  -0.00072   0.00000
 980  H 10  d 3     -0.00320  -0.00000   0.01746   0.01480   0.00000
 981  H 10  d 4     -0.00041  -0.00000  -0.00385   0.01241  -0.00000
 982  H 10  d 5     -0.00295  -0.00000  -0.00404   0.00031  -0.00000
 983  H 10  f 1     -0.00005   0.00000   0.00019   0.00008  -0.00000
 984  H 10  f 2     -0.00011   0.00000   0.00009   0.00001  -0.00000
 985  H 10  f 3      0.00037  -0.00000  -0.00077  -0.00024  -0.00000
 986  H 10  f 4      0.00034  -0.00000  -0.00067  -0.00007   0.00000
 987  H 10  f 5     -0.00005   0.00000   0.00012  -0.00005  -0.00000
 988  H 10  f 6     -0.00025   0.00000   0.00057   0.00030   0.00000
 989  H 10  f 7      0.00001  -0.00000  -0.00008   0.00001  -0.00000
 990  H 10  f 1      0.00002  -0.00000  -0.00063  -0.00026  -0.00000
 991  H 10  f 2      0.00006  -0.00000  -0.00062   0.00153  -0.00000
 992  H 10  f 3      0.00226  -0.00000   0.00060  -0.00110   0.00000
 993  H 10  f 4     -0.00201   0.00000   0.00421   0.00306   0.00000
 994  H 10  f 5     -0.00028  -0.00000  -0.00095   0.00295  -0.00000
 995  H 10  f 6     -0.00044   0.00000  -0.00134  -0.00019  -0.00000
 996  H 10  f 7      0.00001   0.00000   0.00034  -0.00032   0.00000
 997  H 10  g 1     -0.00000  -0.00000   0.00002  -0.00000   0.00000
 998  H 10  g 2     -0.00001  -0.00000  -0.00001   0.00000  -0.00000
 999  H 10  g 3     -0.00005   0.00000  -0.00002   0.00019  -0.00000
1000  H 10  g 4      0.00019  -0.00000  -0.00004  -0.00009   0.00000
1001  H 10  g 5     -0.00014   0.00000   0.00016   0.00021   0.00000
1002  H 10  g 6     -0.00002  -0.00000  -0.00005   0.00021  -0.00000
1003  H 10  g 7     -0.00017  -0.00000   0.00013   0.00012  -0.00000
1004  H 10  g 8      0.00001  -0.00000   0.00001  -0.00004   0.00000
1005  H 10  g 9     -0.00001  -0.00000   0.00004   0.00001   0.00000
1006  O 6   s        0.00031   0.00000  -0.00047  -0.00004  -0.00000
1007  O 6   s       -0.09808   0.00000  -0.03193   0.00177   0.00000
1008  O 6   s       -0.00648  -0.00000  -0.00354   0.00043  -0.00000
1009  O 6   s       -0.11512   0.00000  -0.05896   0.02986   0.00000
1010  O 6   s       -0.00109   0.00000   0.26794  -0.32903  -0.00000
1011  O 6   s        0.46930   0.00000   1.03911  -0.48988  -0.00000
1012  O 6   px       0.02361  -0.00000   0.02609  -0.02118  -0.00000
1013  O 6   py      -0.00827   0.00000  -0.02999  -0.01772   0.00000
1014  O 6   pz       0.01366  -0.00000  -0.00155  -0.01923   0.00000
1015  O 6   px       0.03984   0.00000   0.04592  -0.03711  -0.00000
1016  O 6   py      -0.01540   0.00000  -0.05075  -0.02433   0.00000
1017  O 6   pz       0.02283  -0.00000   0.00165  -0.03210   0.00000
1018  O 6   px       0.03690  -0.00000   0.02960  -0.02325  -0.00000
1019  O 6   py       0.00089   0.00000  -0.06643  -0.07576  -0.00000
1020  O 6   pz       0.03174  -0.00000  -0.04168  -0.03657   0.00000
1021  O 6   px      -0.06874  -0.00000  -0.10549   0.09534   0.00000
1022  O 6   py       0.07808   0.00000   0.01482  -0.15838   0.00000
1023  O 6   pz      -0.05006  -0.00000  -0.17482  -0.02332   0.00000
1024  O 6   px       0.04215  -0.00000  -0.11716   0.10207  -0.00000
1025  O 6   py       0.20926   0.00000   0.10816  -0.26585   0.00000
1026  O 6   pz       0.02964  -0.00000  -0.47159  -0.18960   0.00000
1027  O 6   d 1     -0.00003   0.00000  -0.00008  -0.00012  -0.00000
1028  O 6   d 2      0.00021  -0.00000   0.00004   0.00008  -0.00000
1029  O 6   d 3      0.00012   0.00000   0.00005  -0.00011  -0.00000
1030  O 6   d 4      0.00014   0.00000  -0.00015   0.00000   0.00000
1031  O 6   d 5      0.00015  -0.00000   0.00009   0.00012  -0.00000
1032  O 6   d 1     -0.00006  -0.00000   0.00104   0.00004   0.00000
1033  O 6   d 2      0.00118  -0.00000   0.00082  -0.00092   0.00000
1034  O 6   d 3      0.00014  -0.00000   0.00039  -0.00030   0.00000
1035  O 6   d 4     -0.00118  -0.00000  -0.00021   0.00012   0.00000
1036  O 6   d 5     -0.00171   0.00000  -0.00065   0.00058   0.00000
1037  O 6   d 1     -0.00783   0.00000  -0.00562   0.01278  -0.00000
1038  O 6   d 2      0.00270   0.00000   0.01284  -0.01081  -0.00000
1039  O 6   d 3     -0.00007   0.00000   0.01250  -0.00047  -0.00000
1040  O 6   d 4      0.00713   0.00000   0.01286   0.00093  -0.00000
1041  O 6   d 5      0.00280  -0.00000   0.00004   0.00721   0.00000
1042  O 6   d 1      0.00604   0.00000   0.00085   0.06824  -0.00000
1043  O 6   d 2     -0.03412   0.00000   0.01959  -0.03026  -0.00000
1044  O 6   d 3      0.00118   0.00000   0.04441   0.00646  -0.00000
1045  O 6   d 4      0.02175   0.00000   0.03838   0.01590  -0.00000
1046  O 6   d 5     -0.01697  -0.00000  -0.02571   0.02212   0.00000
1047  O 6   f 1      0.00003   0.00000   0.00003   0.00023   0.00000
1048  O 6   f 2     -0.00033  -0.00000  -0.00005  -0.00022  -0.00000
1049  O 6   f 3     -0.00006  -0.00000   0.00001  -0.00023   0.00000
1050  O 6   f 4     -0.00012  -0.00000   0.00009  -0.00000   0.00000
1051  O 6   f 5     -0.00001  -0.00000   0.00010  -0.00001   0.00000
1052  O 6   f 6      0.00001  -0.00000   0.00026  -0.00001  -0.00000
1053  O 6   f 7     -0.00004   0.00000  -0.00011   0.00005  -0.00000
1054  O 6   f 1     -0.00028  -0.00000  -0.00039  -0.00107  -0.00000
1055  O 6   f 2      0.00116  -0.00000  -0.00094   0.00221   0.00000
1056  O 6   f 3      0.00020  -0.00000  -0.00128   0.00146  -0.00000
1057  O 6   f 4      0.00009  -0.00000  -0.00128   0.00127  -0.00000
1058  O 6   f 5      0.00005  -0.00000  -0.00186   0.00026  -0.00000
1059  O 6   f 6     -0.00037  -0.00000  -0.00150   0.00080   0.00000
1060  O 6   f 7      0.00072   0.00000   0.00084  -0.00154   0.00000
1061  O 6   f 1     -0.00199  -0.00000  -0.00622  -0.00141   0.00000
1062  O 6   f 2      0.00889   0.00000  -0.00053  -0.00394   0.00000
1063  O 6   f 3      0.00532   0.00000   0.00047   0.00347   0.00000
1064  O 6   f 4      0.00503  -0.00000  -0.00505   0.00804   0.00000
1065  O 6   f 5      0.00010  -0.00000  -0.00844  -0.00730   0.00000
1066  O 6   f 6     -0.00471  -0.00000  -0.00385  -0.00271   0.00000
1067  O 6   f 7     -0.00689  -0.00000  -0.00081  -0.00963  -0.00000
1068  O 6   g 1     -0.00004  -0.00000  -0.00012  -0.00011  -0.00000
1069  O 6   g 2      0.00004   0.00000   0.00012  -0.00000  -0.00000
1070  O 6   g 3      0.00001   0.00000   0.00024   0.00003  -0.00000
1071  O 6   g 4     -0.00004  -0.00000   0.00013   0.00009   0.00000
1072  O 6   g 5     -0.00006  -0.00000  -0.00001   0.00012  -0.00000
1073  O 6   g 6     -0.00001   0.00000   0.00011  -0.00016   0.00000
1074  O 6   g 7     -0.00009  -0.00000  -0.00001  -0.00010   0.00000
1075  O 6   g 8      0.00014   0.00000   0.00001  -0.00025   0.00000
1076  O 6   g 9     -0.00000  -0.00000  -0.00008   0.00007  -0.00000
1077  O 6   g 1     -0.00012   0.00000   0.00076  -0.00015  -0.00000
1078  O 6   g 2     -0.00084  -0.00000  -0.00076   0.00055  -0.00000
1079  O 6   g 3     -0.00077  -0.00000  -0.00117  -0.00021  -0.00000
1080  O 6   g 4     -0.00018   0.00000  -0.00018   0.00024   0.00000
1081  O 6   g 5      0.00085  -0.00000  -0.00008  -0.00163   0.00000
1082  O 6   g 6     -0.00094  -0.00000   0.00001   0.00057  -0.00000
1083  O 6   g 7      0.00115   0.00000   0.00059   0.00081  -0.00000
1084  O 6   g 8     -0.00109   0.00000  -0.00012   0.00056   0.00000
1085  O 6   g 9      0.00063   0.00000   0.00111   0.00043   0.00000
1086  O 6   h 1      0.00015   0.00000   0.00019   0.00003   0.00000
1087  O 6   h 2     -0.00022   0.00000  -0.00006  -0.00009   0.00000
1088  O 6   h 3      0.00010  -0.00000   0.00006  -0.00017   0.00000
1089  O 6   h 4      0.00012  -0.00000  -0.00004  -0.00016  -0.00000
1090  O 6   h 5      0.00028  -0.00000   0.00005  -0.00012  -0.00000
1091  O 6   h 6     -0.00020   0.00000  -0.00015   0.00011  -0.00000
1092  O 6   h 7      0.00002  -0.00000   0.00010   0.00005   0.00000
1093  O 6   h 8     -0.00010  -0.00000  -0.00009  -0.00022  -0.00000
1094  O 6   h 9     -0.00024   0.00000   0.00007   0.00009  -0.00000
1095  O 6   h10      0.00013   0.00000   0.00015  -0.00001   0.00000
1096  O 6   h11      0.00004  -0.00000  -0.00008   0.00001   0.00000
1097  H 11  s        0.00755   0.00000   0.00431   0.00038  -0.00000
1098  H 11  s        0.02843   0.00000   0.01622  -0.01857   0.00000
1099  H 11  s        0.07110  -0.00000  -0.01038   0.20605  -0.00000
1100  H 11  s       -0.69047  -0.00000  -0.65667   0.50708  -0.00000
1101  H 11  s        0.56814  -0.00000   1.01917   0.42010  -0.00000
1102  H 11  px      -0.00133   0.00000  -0.00174  -0.00033   0.00000
1103  H 11  py       0.00194   0.00000   0.00196   0.00020   0.00000
1104  H 11  pz       0.00131  -0.00000   0.00076  -0.00002   0.00000
1105  H 11  px       0.00374   0.00000   0.00470  -0.00269  -0.00000
1106  H 11  py      -0.00416  -0.00000  -0.00351   0.00329  -0.00000
1107  H 11  pz      -0.00395   0.00000  -0.00045   0.00179   0.00000
1108  H 11  px      -0.02722  -0.00000  -0.05552   0.03794   0.00000
1109  H 11  py       0.03663  -0.00000   0.05388  -0.06428  -0.00000
1110  H 11  pz       0.03537  -0.00000   0.01883  -0.04221  -0.00000
1111  H 11  px      -0.18464  -0.00000  -0.13955   0.11201  -0.00000
1112  H 11  py       0.17574   0.00000   0.13615  -0.14906   0.00000
1113  H 11  pz       0.10079   0.00000   0.14850  -0.04678   0.00000
1114  H 11  d 1      0.00034  -0.00000  -0.00024   0.00063   0.00000
1115  H 11  d 2      0.00044   0.00000  -0.00022  -0.00101   0.00000
1116  H 11  d 3      0.00025  -0.00000  -0.00021   0.00005   0.00000
1117  H 11  d 4      0.00019  -0.00000   0.00057   0.00043  -0.00000
1118  H 11  d 5     -0.00012   0.00000   0.00007   0.00015   0.00000
1119  H 11  d 1     -0.00196   0.00000   0.00381  -0.00586  -0.00000
1120  H 11  d 2     -0.00331  -0.00000   0.00004   0.00899   0.00000
1121  H 11  d 3     -0.00191   0.00000   0.00240  -0.00070  -0.00000
1122  H 11  d 4     -0.00026   0.00000  -0.00138  -0.00427   0.00000
1123  H 11  d 5      0.00113  -0.00000   0.00001  -0.00305  -0.00000
1124  H 11  d 1      0.04485   0.00000   0.03409  -0.03144  -0.00000
1125  H 11  d 2     -0.02792   0.00000  -0.02567   0.01743  -0.00000
1126  H 11  d 3      0.01470   0.00000   0.00790  -0.01537   0.00000
1127  H 11  d 4      0.03131   0.00000   0.03012  -0.01762  -0.00000
1128  H 11  d 5      0.00468  -0.00000   0.00117  -0.01434   0.00000
1129  H 11  f 1     -0.00037   0.00000   0.00005  -0.00003   0.00000
1130  H 11  f 2      0.00032  -0.00000   0.00012   0.00034  -0.00000
1131  H 11  f 3      0.00034  -0.00000  -0.00026  -0.00028   0.00000
1132  H 11  f 4      0.00014  -0.00000   0.00002   0.00020   0.00000
1133  H 11  f 5     -0.00008   0.00000   0.00026  -0.00004  -0.00000
1134  H 11  f 6      0.00002   0.00000   0.00022   0.00031   0.00000
1135  H 11  f 7     -0.00035  -0.00000   0.00011  -0.00020   0.00000
1136  H 11  f 1      0.00299   0.00000   0.00280  -0.00094  -0.00000
1137  H 11  f 2     -0.00718  -0.00000  -0.00525   0.00556   0.00000
1138  H 11  f 3     -0.00031   0.00000   0.00042   0.00153  -0.00000
1139  H 11  f 4     -0.00448  -0.00000  -0.00303   0.00404   0.00000
1140  H 11  f 5     -0.00033   0.00000  -0.00047   0.00020   0.00000
1141  H 11  f 6     -0.00207   0.00000  -0.00116   0.00197  -0.00000
1142  H 11  f 7      0.00504   0.00000   0.00350  -0.00521   0.00000
1143  H 11  g 1     -0.00013   0.00000  -0.00007   0.00019  -0.00000
1144  H 11  g 2     -0.00017  -0.00000  -0.00023   0.00005  -0.00000
1145  H 11  g 3      0.00017   0.00000   0.00004  -0.00008  -0.00000
1146  H 11  g 4      0.00026   0.00000   0.00015  -0.00030  -0.00000
1147  H 11  g 5      0.00022  -0.00000   0.00011  -0.00009   0.00000
1148  H 11  g 6     -0.00019  -0.00000  -0.00016   0.00015  -0.00000
1149  H 11  g 7      0.00010  -0.00000   0.00004  -0.00001   0.00000
1150  H 11  g 8     -0.00042   0.00000  -0.00028   0.00045   0.00000
1151  H 11  g 9      0.00021   0.00000   0.00026  -0.00023  -0.00000
1152  H 12  s        0.00694  -0.00000   0.00216  -0.00239   0.00000
1153  H 12  s        0.02086   0.00000   0.02594  -0.01215   0.00000
1154  H 12  s        0.03421  -0.00000  -0.18386  -0.00490   0.00000
1155  H 12  s       -0.44957  -0.00000  -0.96222   0.31023   0.00000
1156  H 12  s        0.78750  -0.00000   0.00378  -0.88836   0.00000
1157  H 12  px      -0.00122   0.00000  -0.00037   0.00089  -0.00000
1158  H 12  py      -0.00096   0.00000  -0.00003   0.00051   0.00000
1159  H 12  pz      -0.00229   0.00000  -0.00063   0.00198  -0.00000
1160  H 12  px       0.00188   0.00000   0.00374  -0.00303   0.00000
1161  H 12  py       0.00191   0.00000   0.00034  -0.00129   0.00000
1162  H 12  pz       0.00302   0.00000   0.00438  -0.00543   0.00000
1163  H 12  px      -0.01530  -0.00000  -0.04826   0.03736   0.00000
1164  H 12  py      -0.03284  -0.00000  -0.03472   0.01570   0.00000
1165  H 12  pz      -0.04875  -0.00000  -0.08839   0.05028   0.00000
1166  H 12  px      -0.09204  -0.00000  -0.20356   0.06252   0.00000
1167  H 12  py      -0.10614  -0.00000  -0.14526   0.08854   0.00000
1168  H 12  pz      -0.15075  -0.00000  -0.23164   0.11470   0.00000
1169  H 12  d 1     -0.00067  -0.00000  -0.00050   0.00021   0.00000
1170  H 12  d 2      0.00046   0.00000   0.00029  -0.00020  -0.00000
1171  H 12  d 3     -0.00014   0.00000   0.00076   0.00007   0.00000
1172  H 12  d 4     -0.00043   0.00000   0.00069  -0.00030   0.00000
1173  H 12  d 5     -0.00007   0.00000  -0.00022  -0.00017  -0.00000
1174  H 12  d 1      0.00221   0.00000   0.00029  -0.00036   0.00000
1175  H 12  d 2     -0.00431  -0.00000  -0.00626   0.00052  -0.00000
1176  H 12  d 3     -0.00069  -0.00000  -0.00749   0.00041   0.00000
1177  H 12  d 4      0.00187  -0.00000  -0.00628   0.00333   0.00000
1178  H 12  d 5      0.00130  -0.00000   0.00164   0.00187  -0.00000
1179  H 12  d 1     -0.02772  -0.00000  -0.03784   0.01452   0.00000
1180  H 12  d 2     -0.02629  -0.00000  -0.03302   0.02489  -0.00000
1181  H 12  d 3     -0.02132  -0.00000  -0.02008   0.01650  -0.00000
1182  H 12  d 4     -0.01945  -0.00000  -0.04536   0.03118   0.00000
1183  H 12  d 5      0.00759   0.00000  -0.00903   0.00453  -0.00000
1184  H 12  f 1      0.00012   0.00000   0.00007   0.00007   0.00000
1185  H 12  f 2      0.00015  -0.00000   0.00008  -0.00005   0.00000
1186  H 12  f 3     -0.00006  -0.00000  -0.00044  -0.00035   0.00000
1187  H 12  f 4      0.00010  -0.00000  -0.00014   0.00015   0.00000
1188  H 12  f 5      0.00019  -0.00000  -0.00028  -0.00004   0.00000
1189  H 12  f 6      0.00002  -0.00000   0.00014   0.00020  -0.00000
1190  H 12  f 7     -0.00013  -0.00000  -0.00017   0.00001   0.00000
1191  H 12  f 1     -0.00106  -0.00000  -0.00247   0.00090  -0.00000
1192  H 12  f 2     -0.00464  -0.00000  -0.00826   0.00365  -0.00000
1193  H 12  f 3     -0.00472  -0.00000  -0.00508   0.00414  -0.00000
1194  H 12  f 4     -0.00160  -0.00000  -0.00067  -0.00142  -0.00000
1195  H 12  f 5     -0.00190  -0.00000  -0.00672   0.00480  -0.00000
1196  H 12  f 6      0.00304  -0.00000  -0.00185   0.00129  -0.00000
1197  H 12  f 7      0.00261   0.00000   0.00239   0.00043  -0.00000
1198  H 12  g 1      0.00001  -0.00000   0.00002   0.00008   0.00000
1199  H 12  g 2     -0.00009   0.00000  -0.00031   0.00018   0.00000
1200  H 12  g 3     -0.00033  -0.00000  -0.00060   0.00027  -0.00000
1201  H 12  g 4     -0.00024  -0.00000  -0.00030   0.00006  -0.00000
1202  H 12  g 5      0.00001   0.00000   0.00019  -0.00018  -0.00000
1203  H 12  g 6     -0.00008  -0.00000  -0.00027   0.00014  -0.00000
1204  H 12  g 7      0.00032   0.00000  -0.00012   0.00009   0.00000
1205  H 12  g 8      0.00028   0.00000   0.00019   0.00001   0.00000
1206  H 12  g 9      0.00011  -0.00000   0.00011   0.00000   0.00000

          Ground-State Mulliken Net Atomic Charges

     Atom                 Charge (a.u.)
  ----------------------------------------
      1 O                    -0.613435
      2 H                     0.284059
      3 H                     0.322016
      4 O                    -0.557505
      5 H                     0.272836
      6 H                     0.283668
      7 O                    -0.615993
      8 H                     0.316744
      9 H                     0.300250
     10 O                    -0.657708
     11 H                     0.327407
     12 H                     0.306313
     13 O                    -0.644360
     14 H                     0.367792
     15 H                     0.273634
     16 O                    -0.725299
     17 H                     0.392326
     18 H                     0.367254
  ----------------------------------------
  Sum of atomic charges =     0.000000

 -----------------------------------------------------------------
                    Cartesian Multipole Moments
 -----------------------------------------------------------------
    Charge (ESU x 10^10)
                 0.0000
    Dipole Moment (Debye)
         X      -2.2825      Y      -3.7041      Z      -3.4897
       Tot       5.5775
    Quadrupole Moments (Debye-Ang)
        XX     -85.1187     XY      38.5034     YY     -45.3646
        XZ     -25.1044     YZ       5.3843     ZZ     -46.0542
    Octopole Moments (Debye-Ang^2)
       XXX    -216.1017    XXY    -787.2073    XYY    -149.7567
       YYY     -58.1531    XXZ    -189.8295    XYZ      85.9329
       YYZ      -3.3388    XZZ      21.7035    YZZ     -12.2193
       ZZZ      -8.4990
    Hexadecapole Moments (Debye-Ang^3)
      XXXX  -31373.1212   XXXY    8552.9152   XXYY   -3835.3241
      XYYY    -234.8531   YYYY    -759.4210   XXXZ   -1681.8230
      XXYZ     -45.2774   XYYZ     307.8086   YYYZ     121.7837
      XXZZ   -5461.3982   XYZZ    -203.2304   YYZZ    -210.5815
      XZZZ     447.6602   YZZZ      48.4272   ZZZZ    -339.4172
 -----------------------------------------------------------------
 Total job time:  2023.24s(wall), 63661.59s(cpu) 
 Tue Dec 17 22:07:25 2024

        *************************************************************
        *                                                           *
        *  Thank you very much for using Q-Chem.  Have a nice day.  *
        *                                                           *
        *************************************************************


