                  Welcome to Q-Chem
     A Quantum Leap Into The Future Of Chemistry


 Q-Chem 6.2 (devel), Q-Chem, Inc., Pleasanton, CA (2024)

 E. Epifanovsky,  A. T. B. Gilbert,  Xintian Feng,  Joonho Lee,  Yuezhi Mao,  
 N. Mardirossian,  P. Pokhilko,  A. White,  M. Wormit,  M. P. Coons,  
 A. L. Dempwolff,  Zhengting Gan,  D. Hait,  P. R. Horn,  L. D. Jacobson,  
 I. Kaliman,  J. Kussmann,  A. W. Lange,  Ka Un Lao,  D. S. Levine,  Jie Liu,  
 S. C. McKenzie,  A. F. Morrison,  K. D. Nanda,  F. Plasser,  D. R. Rehn,  
 M. L. Vidal,  Zhi-Qiang You,  Ying Zhu,  Huseyin Aksu,  B. Alam,  
 B. Albrecht,  A. Aldossary,  E. Alguire,  J. H. Andersen,  
 J. E. Arias-Martinez,  V. Athavale,  D. Barton,  K. Begam,  A. Behn,  
 N. Bellonzi,  Y. A. Bernard,  E. J. Berquist,  H. Burton,  A. Carreras,  
 K. Carter-Fenk,  Mathew Chow,  Romit Chakraborty,  Chandrima Chakravarty,  
 Junhan Chen,  A. D. Chien,  K. D. Closser,  V. Cofer-Shabica,  L. Cunha,  
 S. Dasgupta,  Jia Deng,  Joseph Dickinson,  M. de Wergifosse,  
 M. Diedenhofen,  Hainam Do,  Wenjie Dou,  S. Ehlert,  Po-Tung Fang,  
 S. Fatehi,  Qingguo Feng,  Jonathan Fetherolf,  T. Friedhoff,  
 Thomas Froitzheim,  Sarai Folkestad,  B. Ganoe,  J. Gayvert,  Qinghui Ge,  
 G. Gidofalvi,  M. Gimferrer,  M. Goldey,  Montgomery Gray,  J. Gomes,  
 C. Gonzalez-Espinoza,  S. Gulania,  A. Gunina,  J. A. Gyamfi,  
 M. W. D. Hanson-Heine,  P. H. P. Harbach,  A. W. Hauser,  M. F. Herbst,  
 M. Hernandez Vera,  M. Hodecker,  Z. C. Holden,  S. Houck,  Xunkun Huang,  
 Kerwin Hui,  B. C. Huynh,  K. Ikeda,  M. Ivanov,  Nayanthara K. Jayadev,  
 Hyunjun Ji,  Zuxin Jin,  Hanjie Jiang,  Subrata Jana,  B. Kaduk,  
 S. Kaehler,  R. Kang,  K. Khistyaev,  Jaehoon Kim,  Yongbin Kim,  
 P. Klunzinger,  Z. Koczor-Benda,  Joong Hoon Koh,  D. Kosenkov,  
 Saikiran Kotaru,  L. Koulias,  T. Kowalczyk,  C. M. Krauter,  K. Kue,  
 A. Kunitsa,  T. Kus,  A. Landau,  K. V. Lawler,  D. Lefrancois,  S. Lehtola,  
 Rain Li,  Shaozhi Li,  Tao E. Li,  Yi-Pei Li,  Jiashu Liang,  M. Liebenthal,  
 Hung-Hsuan Lin,  You-Sheng Lin,  Fenglai Liu,  Kuan-Yu Liu,  Xiao Liu,  
 M. Loipersberger,  A. Luenser,  C. Malbon,  Aniket Mandal,  Manisha,  
 A. Manjanath,  P. Manohar,  E. Mansoor,  S. F. Manzer,  Shan-Ping Mao,  
 A. V. Marenich,  T. Markovich,  S. Mason,  F. Matz,  S. A. Maurer,  
 Samuel May,  Alexandra McIsaac,  P. F. McLaughlin,  M. F. S. J. Menger,  
 J.-M. Mewes,  S. A. Mewes,  P. Morgante,  Mohammad Mostafanejad,  
 Madhubani Mukherjee,  J. W. Mullinax,  Quyen Nguyen,  Avik Kumar Ojha,  
 K. J. Oosterbaan,  Eno Paenurk,  Xiaoliang Pan,  G. Paran,  V. Parravicini,  
 Alexander C. Paul,  Suranjan K. Paul,  F. Pavosevic,  Zheng Pei,  S. Prager,  
 E. I. Proynov,  E. Ramos,  B. Rana,  A. E. Rask,  A. Rettig,  R. M. Richard,  
 F. Rob,  E. Rossomme,  T. Scheele,  M. Scheurer,  M. Schneider,  
 P. E. Schneider,  Tim K. Schramm,  N. Sergueev,  S. M. Sharada,  
 Hengyuan Shen,  W. Skomorowski,  D. W. Small,  C. J. Stein,  
 Alistair J. Sterling,  Yingli Su,  Yu-Chuan Su,  E. J. Sundstrom,  
 J. Talbot,  Zhen Tao,  J. Thirman,  Hung-Yi Tsai,  T. Tsuchimochi,  
 N. M. Tubman,  C. Utku,  S. P. Veccham,  O. Vydrov,  Rahel Weiss,  
 J. Wenzel,  Jonathan Wong,  J. Witte,  H. Wu,  Yanze Wu,  A. Yamada,  
 Chou-Hsun Yang,  Kun Yao,  S. Yeganeh,  S. R. Yost,  Qi Yu,  A. Zech,  
 F. Zeller,  Chongxiao Zhao,  Igor Ying Zhang,  Xing Zhang,  Yu Zhang,  
 D. Zuev,  A. Aspuru-Guzik,  A. T. Bell,  N. A. Besley,  K. B. Bravaya,  
 B. R. Brooks,  D. Casanova,  Jeng-Da Chai,  Hsing-Ta Chen,  S. Coriani,  
 C. J. Cramer,  A. E. DePrince, III,  R. A. DiStasio Jr.,  A. Dreuw,  
 B. D. Dunietz,  T. R. Furlani,  W. A. Goddard III,  S. Grimme,  
 S. Hammes-Schiffer,  T. Head-Gordon,  W. J. Hehre,  Chao-Ping Hsu,  
 T.-C. Jagau,  Yousung Jung,  A. Klamt,  Jing Kong,  D. S. Lambrecht,  
 Xiangyuan Li,  WanZhen Liang,  N. J. Mayhall,  C. W. McCurdy,  J. B. Neaton,  
 T. Neudecker,  C. Ochsenfeld,  J. A. Parkhill,  R. Peverati,  
 V. A. Rassolov,  Haisheng Ren,  Yihan Shao,  L. V. Slipchenko,  
 R. P. Steele,  J. E. Subotnik,  A. J. W. Thom,  A. Tkatchenko,  
 D. G. Truhlar,  T. Van Voorhis,  Fan Wang,  T. A. Wesolowski,  K. B. Whaley,  
 H. L. Woodcock III,  P. M. Zimmerman,  S. Faraji,  P. M. W. Gill,  
 M. Head-Gordon,  J. M. Herbert,  A. I. Krylov

 Contributors to earlier versions of Q-Chem not listed above: 
 R. D. Adamson,  B. Austin,  R. Baer,  J. Baker,  G. J. O. Beran,  
 K. Brandhorst,  S. T. Brown,  E. F. C. Byrd,  Arup K. Chakraborty,  
 G. K. L. Chan,  Chun-Min Chang,  Yunqing Chen,  C.-L. Cheng,  
 Siu Hung Chien,  D. M. Chipman,  D. L. Crittenden,  H. Dachsel,  
 R. J. Doerksen,  A. D. Dutoi,  R. G. Edgar,  J. Fosso-Tande,  
 L. Fusti-Molnar,  D. Ghosh,  A. Ghysels,  A. Golubeva-Zadorozhnaya,  
 J. Gonthier,  M. S. Gordon,  S. R. Gwaltney,  G. Hawkins,  J. E. Herr,  
 A. Heyden,  S. Hirata,  E. G. Hohenstein,  G. Kedziora,  F. J. Keil,  
 C. Kelley,  Jihan Kim,  R. A. King,  R. Z. Khaliullin,  P. P. Korambath,  
 W. Kurlancheek,  A. Laurent,  A. M. Lee,  M. S. Lee,  S. V. Levchenko,  
 Ching Yeh Lin,  D. Liotard,  E. Livshits,  R. C. Lochan,  I. Lotan,  
 L. A. Martinez-Martinez,  P. E. Maslen,  N. Nair,  D. P. O'Neill,  
 D. Neuhauser,  E. Neuscamman,  C. M. Oana,  R. Olivares-Amaya,  R. Olson,  
 T. M. Perrine,  B. Peters,  P. A. Pieniazek,  A. Prociuk,  Y. M. Rhee,  
 J. Ritchie,  M. A. Rohrdanz,  E. Rosta,  N. J. Russ,  H. F. Schaefer III,  
 M. W. Schmidt,  N. E. Schultz,  S. Sharma,  N. Shenvi,  C. D. Sherrill,  
 A. C. Simmonett,  A. Sodt,  T. Stein,  D. Stuck,  K. S. Thanthiriwatte,  
 V. Vanovschi,  L. Vogt,  Tao Wang,  A. Warshel,  M. A. Watson,  
 C. F. Williams,  Q. Wu,  X. Xu,  Jun Yang,  W. Zhang,  Yan Zhao

   Please cite Q-Chem as follows:
  "Software for the frontiers of quantum chemistry:
   An overview of developments in the Q-Chem 5 package"
   J. Chem. Phys. 155, 084801 (2021)
   https://doi.org/10.1063/5.0055522 (open access)

 Q-Chem 6.2.2 for Intel X86 EM64T Linux

 Parts of Q-Chem use Armadillo 9.900.5 (Nocturnal Misbehaviour).
 http://arma.sourceforge.net/

 Q-Chem begins on Tue Jan 14 16:18:21 2025  

 Host: compute-0-8.local
0

     Scratch files written to /scratch/keith/A1D2_2//
 Processing $rem in /home/keith/software/qchem/qchem_622/config/preferences:
 Processing $rem in /home/keith/.qchemrc:

 Checking the input file for inconsistencies... 	...done.

--------------------------------------------------------------
User input:
--------------------------------------------------------------
$molecule
0 1
O -0.54434 0.15044 0.80740
H -1.43894 0.44324 0.85840
H -0.50014 -0.78626 0.76540
O 1.34916 2.59334 0.78440
H 1.19716 1.63884 0.92440
H 2.11716 2.89214 1.25540
O -0.60734 -0.17176 -2.37260
H -0.18534 0.48534 -1.85960
H -1.51574 -0.17056 -2.05260
O 0.15546 -2.27796 -0.72860
H -0.39934 -3.03496 -0.63960
H -0.07024 -1.76056 -1.52460
O 2.90416 -2.00446 -0.04860
H 3.13516 -2.74996 -0.72960
H 1.89816 -2.07256 -0.06960
O -3.17964 1.77434 1.59640
H -2.25924 1.99794 1.79240
H -3.20774 2.10284 0.67040
$end

$rem
method                    b3lyp 
basis                     cc-pv5z 
mem_total                 48000
mem_static                8000
thresh                    12
scf_convergence           8
xc_grid                   000075000302
max_scf_cycles            2000
symmetry                  false
sym_ignore                true
print_orbitals true
$end
gui                       2
molden_format true
--------------------------------------------------------------
 ----------------------------------------------------------------
             Standard Nuclear Orientation (Angstroms)
    I     Atom           X                Y                Z
 ----------------------------------------------------------------
    1      O      -0.5443400000     0.1504400000     0.8074000000
    2      H      -1.4389400000     0.4432400000     0.8584000000
    3      H      -0.5001400000    -0.7862600000     0.7654000000
    4      O       1.3491600000     2.5933400000     0.7844000000
    5      H       1.1971600000     1.6388400000     0.9244000000
    6      H       2.1171600000     2.8921400000     1.2554000000
    7      O      -0.6073400000    -0.1717600000    -2.3726000000
    8      H      -0.1853400000     0.4853400000    -1.8596000000
    9      H      -1.5157400000    -0.1705600000    -2.0526000000
   10      O       0.1554600000    -2.2779600000    -0.7286000000
   11      H      -0.3993400000    -3.0349600000    -0.6396000000
   12      H      -0.0702400000    -1.7605600000    -1.5246000000
   13      O       2.9041600000    -2.0044600000    -0.0486000000
   14      H       3.1351600000    -2.7499600000    -0.7296000000
   15      H       1.8981600000    -2.0725600000    -0.0696000000
   16      O      -3.1796400000     1.7743400000     1.5964000000
   17      H      -2.2592400000     1.9979400000     1.7924000000
   18      H      -3.2077400000     2.1028400000     0.6704000000
 ----------------------------------------------------------------
 Nuclear Repulsion Energy =         256.80625098 hartrees
 There are       30 alpha and       30 beta electrons
 Requested basis set is cc-pV5Z
 There are 306 shells and 1206 basis functions

 Total QAlloc Memory Limit  48000 MB
 Mega-Array Size      7821 MB
 MEM_STATIC part      8000 MB

 A cutoff of  1.0D-12 yielded  28951 shell pairs
 There are    382065 function pairs (    632227 Cartesian)
 Smallest overlap matrix eigenvalue = 2.41E-05

 Scale SEOQF with 1.000000e-01/1.000000e-01/1.000000e-01

 Standard Electronic Orientation quadrupole field applied
 Nucleus-field energy     =     0.0000000110 hartrees
 Guess from superposition of atomic densities
 Warning:  Energy on first SCF cycle will be non-variational
 SAD guess density has 60.000000 electrons

 -----------------------------------------------------------------------
  General SCF calculation program by
  Eric Jon Sundstrom, Paul Horn, Yuezhi Mao, Dmitri Zuev, Alec White,
  David Stuck, Shaama M.S., Shane Yost, Joonho Lee, David Small,
  Daniel Levine, Susi Lehtola, Hugh Burton, Evgeny Epifanovsky,
  Bang C. Huynh
 -----------------------------------------------------------------------
 Exchange:     0.2000 Hartree-Fock + 0.0800 Slater + 0.7200 B88
 Correlation:  0.1900 VWN1RPA + 0.8100 LYP
 Using Euler-Maclaurin-Lebedev (75,302) quadrature formula
 A restricted SCF calculation will be
 performed using DIIS
 SCF converges when DIIS error is below 1.0e-08
 ---------------------------------------
  Cycle       Energy         DIIS error
 ---------------------------------------
    1    -458.6199970345      6.69e-03  
    2    -458.4643867907      1.75e-03  
    3    -458.0143515690      2.59e-03  
    4    -458.8554870310      1.12e-04  
    5    -458.8559181801      9.56e-05  
    6    -458.8569873366      9.50e-06  
    7    -458.8569963928      3.35e-06  
    8    -458.8569974652      1.51e-06  
    9    -458.8569977382      1.23e-07  
   10    -458.8569977393      7.46e-08  
   11    -458.8569977400      1.64e-08  
   12    -458.8569977400      1.58e-09  Convergence criterion met
 ---------------------------------------
 SCF time:   CPU 120725.17s  wall 3829.00s 
 SCF   energy =  -458.85699774
 Total energy =  -458.85699774

 --------------------------------------------------------------

                    Orbital Energies (a.u.)
 --------------------------------------------------------------

 Alpha MOs
 -- Occupied --
-19.1609 -19.1604 -19.1516 -19.1392 -19.1145 -19.1071  -1.0586  -1.0429
 -1.0402  -1.0345  -0.9981  -0.9640  -0.5776  -0.5721  -0.5706  -0.5415
 -0.5338  -0.4841  -0.4369  -0.4303  -0.4200  -0.4088  -0.3722  -0.3692
 -0.3635  -0.3467  -0.3406  -0.3344  -0.3070  -0.2881
 -- Virtual --
 -0.0441  -0.0109   0.0094   0.0185   0.0300   0.0515   0.0613   0.0690
  0.1030   0.1056   0.1170   0.1418   0.1583   0.1858   0.1944   0.1958
  0.2001   0.2098   0.2195   0.2234   0.2267   0.2330   0.2391   0.2476
  0.2555   0.2621   0.2647   0.2699   0.2770   0.2861   0.2919   0.3000
  0.3045   0.3161   0.3212   0.3328   0.3362   0.3417   0.3557   0.3657
  0.3761   0.3816   0.3924   0.3999   0.4130   0.4340   0.4518   0.4547
  0.4625   0.4742   0.5001   0.5045   0.5153   0.5387   0.5545   0.5658
  0.5740   0.5823   0.6030   0.6137   0.6155   0.6200   0.6302   0.6474
  0.6534   0.6795   0.6831   0.6912   0.6925   0.7209   0.7266   0.7369
  0.7502   0.7535   0.7641   0.7723   0.7830   0.7917   0.7936   0.8020
  0.8129   0.8235   0.8256   0.8338   0.8419   0.8530   0.8584   0.8702
  0.8902   0.9061   0.9174   0.9340   0.9440   0.9730   0.9897   1.0009
  1.0084   1.0149   1.0152   1.0243   1.0375   1.0444   1.0499   1.0551
  1.0744   1.0810   1.0885   1.1008   1.1101   1.1206   1.1306   1.1491
  1.1618   1.1696   1.1734   1.1967   1.2039   1.2107   1.2216   1.2259
  1.2464   1.2599   1.2611   1.2929   1.3005   1.3114   1.3128   1.3228
  1.3450   1.3553   1.3752   1.3943   1.4057   1.4097   1.4283   1.4393
  1.4521   1.4593   1.4735   1.4932   1.4949   1.5027   1.5131   1.5283
  1.5369   1.5504   1.5567   1.5677   1.5795   1.5917   1.5982   1.6138
  1.6265   1.6293   1.6447   1.6550   1.6666   1.6729   1.6758   1.6808
  1.6874   1.7025   1.7124   1.7216   1.7255   1.7331   1.7445   1.7547
  1.7635   1.7715   1.7784   1.7896   1.7947   1.8129   1.8218   1.8317
  1.8380   1.8405   1.8491   1.8642   1.8744   1.8873   1.8908   1.8953
  1.9230   1.9281   1.9297   1.9335   1.9409   1.9593   1.9667   1.9718
  1.9779   1.9856   1.9988   2.0074   2.0190   2.0293   2.0420   2.0572
  2.0601   2.0664   2.0847   2.0912   2.1053   2.1103   2.1285   2.1393
  2.1404   2.1675   2.1886   2.1985   2.2115   2.2212   2.2361   2.2455
  2.2898   2.2954   2.3145   2.3275   2.3428   2.3514   2.3625   2.3762
  2.3868   2.3991   2.3997   2.4059   2.4240   2.4319   2.4394   2.4636
  2.4849   2.4988   2.5072   2.5227   2.5380   2.5507   2.5819   2.5882
  2.6095   2.6204   2.6212   2.6320   2.6500   2.6561   2.6643   2.6692
  2.6888   2.6982   2.7027   2.7270   2.7328   2.7378   2.7497   2.7639
  2.7805   2.7884   2.7999   2.8076   2.8340   2.8533   2.8597   2.8713
  2.8784   2.9057   2.9156   2.9271   2.9287   2.9498   2.9611   2.9745
  2.9842   3.0160   3.0211   3.0374   3.0550   3.0732   3.0737   3.0972
  3.1098   3.1363   3.1522   3.1766   3.1776   3.1858   3.2162   3.2279
  3.2467   3.2595   3.2699   3.2787   3.3054   3.3163   3.3293   3.3343
  3.3639   3.3760   3.3965   3.4061   3.4160   3.4323   3.4446   3.4523
  3.4586   3.4674   3.4751   3.4841   3.4912   3.5131   3.5177   3.5298
  3.5488   3.5591   3.5704   3.5932   3.6024   3.6218   3.6483   3.6546
  3.6642   3.6791   3.7054   3.7148   3.7219   3.7359   3.7581   3.7610
  3.7726   3.7769   3.7843   3.8036   3.8141   3.8175   3.8449   3.8653
  3.8713   3.8816   3.9017   3.9147   3.9166   3.9306   3.9338   3.9670
  3.9686   3.9841   4.0072   4.0231   4.0450   4.0648   4.0732   4.0946
  4.1142   4.1498   4.1672   4.2138   4.2405   4.2638   4.2697   4.2788
  4.2974   4.3299   4.3415   4.3675   4.3771   4.3856   4.3901   4.4040
  4.4182   4.4205   4.4315   4.4441   4.4518   4.4555   4.4690   4.4776
  4.4886   4.4927   4.4995   4.5067   4.5174   4.5241   4.5319   4.5436
  4.5525   4.5681   4.5782   4.5812   4.5927   4.6008   4.6056   4.6097
  4.6186   4.6320   4.6476   4.6536   4.6678   4.6717   4.6864   4.7129
  4.7268   4.7409   4.7483   4.7599   4.7717   4.7817   4.7956   4.7990
  4.8006   4.8158   4.8233   4.8340   4.8403   4.8502   4.8533   4.8662
  4.8790   4.8901   4.9038   4.9100   4.9177   4.9336   4.9359   4.9546
  4.9605   4.9744   4.9934   5.0197   5.0229   5.0385   5.0538   5.0734
  5.0960   5.1092   5.1152   5.1237   5.1425   5.1628   5.1890   5.1992
  5.2101   5.2190   5.2510   5.2741   5.2773   5.2918   5.2975   5.3069
  5.3343   5.3403   5.3603   5.3828   5.3884   5.4055   5.4153   5.4257
  5.4403   5.4600   5.4715   5.5094   5.5283   5.5457   5.5662   5.6056
  5.6154   5.6348   5.6464   5.6611   5.6882   5.6981   5.7066   5.7451
  5.7681   5.7946   5.8082   5.8524   5.8708   5.8787   5.9085   5.9496
  5.9748   5.9868   6.0124   6.0297   6.0565   6.0666   6.1107   6.1224
  6.1572   6.1764   6.1858   6.2279   6.2350   6.2549   6.2784   6.2802
  6.2993   6.3132   6.3174   6.3284   6.3479   6.3731   6.3838   6.3996
  6.4076   6.4373   6.4798   6.4892   6.5216   6.5438   6.5577   6.5614
  6.5769   6.5983   6.6110   6.6338   6.6485   6.6535   6.6631   6.6849
  6.7011   6.7297   6.7402   6.7540   6.7634   6.7804   6.7937   6.7959
  6.8086   6.8185   6.8198   6.8319   6.8495   6.8540   6.8598   6.8782
  6.8946   6.9064   6.9153   6.9293   6.9425   6.9498   6.9583   6.9819
  6.9923   7.0241   7.0437   7.0492   7.0900   7.0906   7.0988   7.1185
  7.1360   7.1588   7.1789   7.1830   7.2135   7.2202   7.2363   7.2381
  7.2604   7.2727   7.2919   7.3013   7.3259   7.3530   7.3689   7.3991
  7.4140   7.4292   7.4534   7.4538   7.4604   7.4908   7.5218   7.5370
  7.5515   7.5723   7.5839   7.5904   7.6132   7.6228   7.6515   7.6718
  7.7032   7.7220   7.7396   7.7773   7.7896   7.8087   7.8199   7.8231
  7.8459   7.8607   7.8687   7.9006   7.9078   7.9168   7.9556   8.0008
  8.0106   8.0508   8.1012   8.1709   8.1908   8.2000   8.2462   8.2752
  8.2765   8.4020   8.4827   8.5027   8.5675   8.5967   8.6272   8.6393
  8.7716   8.8165   8.9224   8.9342   9.0096   9.0286   9.0366   9.0535
  9.0587   9.1061   9.1160   9.1272   9.1379   9.1581   9.1728   9.1923
  9.2273   9.3129   9.3281   9.4594   9.6143   9.6221   9.6702   9.7145
  9.7230   9.7286   9.7340   9.7593   9.7697   9.7718   9.7855   9.8010
  9.8222   9.8463   9.8935   9.8944   9.9231  10.0117  11.6142  11.6843
 11.6871  11.7006  11.7108  11.7340  11.7414  11.7498  11.7683  11.7803
 11.7930  11.7990  11.8100  11.8120  11.8182  11.8262  11.8348  11.8530
 11.8585  11.8985  11.9451  11.9563  11.9736  11.9843  11.9889  12.0112
 12.0364  12.0485  12.0529  12.0588  12.0685  12.1056  12.1111  12.1177
 12.1285  12.1389  12.1495  12.1504  12.1581  12.1590  12.1653  12.1832
 12.1855  12.1934  12.1944  12.2003  12.2079  12.2110  12.2150  12.2151
 12.2307  12.2348  12.2396  12.2432  12.2474  12.2542  12.2587  12.2588
 12.2737  12.2919  12.2981  12.3071  12.3167  12.3309  12.3481  12.3587
 12.3652  12.3818  12.3916  12.4014  12.4082  12.4147  12.4234  12.4285
 12.4333  12.4443  12.4505  12.4806  12.4910  12.5027  12.5249  12.5283
 12.5396  12.5416  12.5516  12.5630  12.5734  12.5802  12.5945  12.5992
 12.6190  12.6405  12.6450  12.6548  12.6585  12.6635  12.6737  12.6997
 12.7027  12.7405  12.7476  12.7603  12.7619  12.7913  12.8229  12.8363
 12.8372  12.8724  12.8884  12.8972  12.9031  12.9209  12.9332  12.9438
 12.9646  12.9778  13.0021  13.0290  13.0312  13.0381  13.0514  13.0685
 13.1111  13.1243  13.1635  13.1689  13.1863  13.2038  13.2164  13.2284
 13.2470  13.2494  13.2621  13.2678  13.2825  13.2940  13.3002  13.3272
 13.3365  13.3392  13.3409  13.3486  13.3648  13.3792  13.3863  13.3971
 13.4064  13.4100  13.4223  13.4360  13.4490  13.4523  13.4672  13.4717
 13.4764  13.4821  13.4900  13.5085  13.5144  13.5208  13.5281  13.5317
 13.5365  13.5496  13.5545  13.5575  13.5697  13.5780  13.6047  13.6072
 13.6219  13.6297  13.6330  13.6435  13.6528  13.6628  13.6693  13.6924
 13.6966  13.7205  13.7243  13.7525  13.7783  13.7908  13.7992  13.8272
 13.8318  13.8377  13.8663  13.8779  13.8827  13.9273  13.9304  13.9354
 13.9542  13.9634  13.9744  13.9961  14.0183  14.0533  14.0576  14.0740
 14.0835  14.0959  14.1148  14.1609  14.2009  14.2228  14.2273  14.2579
 14.2747  14.2992  14.3014  14.3146  14.3379  14.3417  14.3779  14.3822
 14.3951  14.4140  14.4267  14.4732  14.5053  14.5252  14.5779  14.5902
 14.5967  14.6121  14.6619  14.6813  14.7156  14.7752  14.7873  14.9122
 15.0436  15.1630  15.1862  15.2280  15.2795  15.2936  15.3197  15.3252
 15.3732  15.3864  15.4427  15.4614  15.5087  15.5507  15.5727  15.5869
 15.6064  15.6169  15.6658  15.6751  15.6955  15.7286  15.7418  15.8123
 15.8169  15.8471  15.8719  15.8929  15.8993  15.9514  15.9852  15.9981
 16.0145  16.0281  16.0513  16.0695  16.0728  16.0915  16.1084  16.1110
 16.1168  16.1349  16.1557  16.1581  16.1730  16.1757  16.1820  16.1872
 16.1983  16.2204  16.2254  16.2412  16.2522  16.2679  16.2832  16.2857
 16.3335  16.3478  16.3577  16.3706  16.3800  16.4107  16.4269  16.4385
 16.4560  16.4785  16.4856  16.4905  16.5159  16.5384  16.5582  16.5782
 16.6404  16.6967  16.7401  16.8590  16.8820  16.9261  16.9606  17.0095
 17.0450  17.0532  17.0622  17.0716  17.0927  17.1081  17.1319  17.1584
 17.1752  17.1798  17.1929  17.2112  17.2225  17.2400  17.2662  17.2776
 17.3372  17.3440  17.3558  17.4079  17.4215  17.4580  17.4731  17.4739
 17.4874  17.5374  17.5474  17.5722  17.6240  17.6314  17.6338  17.6747
 17.7019  17.7056  17.7301  17.7511  17.7859  17.7868  17.8018  17.8171
 17.8796  17.8917  17.9342  18.0500  18.0853  18.0903  18.1163  18.1284
 18.1654  18.1686  18.1878  18.1925  18.2053  18.2279  18.2896  18.2988
 18.3078  18.3166  18.3340  18.3451  18.3550  18.3963  18.4070  18.4267
 18.4413  18.4628  18.4804  18.4945  18.5013  18.5328  18.5350  18.5725
 18.6331  18.6338  18.6399  18.7010  18.7040  18.7496  18.7734  18.8391
 18.9080  18.9122  18.9213  18.9484  18.9517  18.9628  19.0091  19.0431
 19.1055  19.1154  19.1572  19.1850  19.2207  19.3349  19.3354  19.3454
 19.3623  19.3643  19.3683  19.3774  19.4302  19.4355  19.4585  19.4739
 19.5221  19.5416  19.5506  19.5700  19.5730  19.5773  19.6113  19.6242
 19.6707  19.6927  19.7089  19.7188  19.7336  19.7620  19.8286  19.8946
 19.9203  19.9538  19.9816  20.0185  20.2958  20.5112  20.5975  20.6768
 20.6825  20.8049  20.8822  20.9326  20.9805  21.0345  21.0524  21.2221
 21.7306  21.8198  21.8253  21.8435  21.8650  21.8719  21.9067  21.9144
 21.9189  21.9976  22.0137  22.0393  22.1294  22.2241  22.2383  22.2486
 22.2607  22.3307  22.4071  22.4390  22.5007  22.6837  22.6842  22.8347
 22.9067  22.9257  22.9357  23.0125  23.0154  23.0812  23.1569  23.1859
 23.2982  23.3695  23.3835  23.4470  23.4719  23.4877  23.5541  23.6285
 23.6915  23.6977  23.7947  24.0456  24.1022  24.4207  24.4539  24.5259
 24.6840  24.7230  24.8130  24.8471  24.9159  24.9885  25.0059  25.0236
 25.0734  25.1405  25.2055  25.2226  25.4238  25.7335  26.0883  26.2224
 26.3735  26.6136  63.5952  63.9518  64.1318  64.3862  64.5382  64.6276
 --------------------------------------------------------------


                        RESTRICTED (RHF) MOLECULAR ORBITAL COEFFICIENTS
                         1         2         3         4         5         6
 eigenvalues:        -19.161   -19.160   -19.152   -19.139   -19.115   -19.107
   1  O 1   s        0.00002  -0.00003   0.00003   0.97870  -0.00001   0.00001
   2  O 1   s       -0.00000  -0.00001  -0.00001   0.03125   0.00001   0.00001
   3  O 1   s       -0.00001  -0.00002  -0.00002   0.08551   0.00002   0.00002
   4  O 1   s        0.00005   0.00015  -0.00007  -0.01608   0.00004  -0.00002
   5  O 1   s        0.00036  -0.00052   0.00090  -0.02152  -0.00073  -0.00028
   6  O 1   s       -0.00064  -0.00204   0.00168  -0.00495  -0.00159  -0.00027
   7  O 1   px       0.00000   0.00000  -0.00000  -0.00091  -0.00001  -0.00000
   8  O 1   py       0.00000   0.00000  -0.00000  -0.00065   0.00000   0.00000
   9  O 1   pz      -0.00000   0.00000  -0.00000   0.00001  -0.00000   0.00000
  10  O 1   px      -0.00001   0.00001  -0.00001  -0.00053   0.00004   0.00002
  11  O 1   py      -0.00000  -0.00002   0.00003  -0.00039  -0.00004  -0.00003
  12  O 1   pz       0.00001   0.00001   0.00003   0.00001   0.00000  -0.00001
  13  O 1   px      -0.00010  -0.00012   0.00011   0.00792  -0.00013  -0.00013
  14  O 1   py       0.00005   0.00017  -0.00032   0.00571   0.00029   0.00026
  15  O 1   pz      -0.00001  -0.00004  -0.00016  -0.00010   0.00001   0.00004
  16  O 1   px       0.00015  -0.00028  -0.00015   0.00224  -0.00092  -0.00023
  17  O 1   py       0.00007   0.00106  -0.00062   0.00151   0.00161   0.00047
  18  O 1   pz      -0.00011  -0.00003  -0.00020  -0.00012   0.00013   0.00008
  19  O 1   px      -0.00003   0.00011  -0.00001   0.00022  -0.00058  -0.00005
  20  O 1   py       0.00039   0.00061  -0.00026   0.00016   0.00057   0.00017
  21  O 1   pz       0.00019   0.00010  -0.00015   0.00009   0.00006  -0.00001
  22  O 1   d 1     -0.00000   0.00000  -0.00000  -0.00013  -0.00000  -0.00000
  23  O 1   d 2     -0.00000  -0.00000  -0.00000   0.00003  -0.00000   0.00000
  24  O 1   d 3      0.00000   0.00000  -0.00000  -0.00026   0.00000  -0.00000
  25  O 1   d 4      0.00000  -0.00000   0.00000  -0.00003  -0.00000  -0.00000
  26  O 1   d 5     -0.00000   0.00000   0.00000  -0.00004  -0.00000  -0.00000
  27  O 1   d 1      0.00000  -0.00001   0.00001   0.00018   0.00001   0.00000
  28  O 1   d 2      0.00001   0.00000  -0.00000  -0.00006   0.00001   0.00000
  29  O 1   d 3     -0.00001  -0.00001   0.00001   0.00046  -0.00001   0.00000
  30  O 1   d 4     -0.00001  -0.00000  -0.00000   0.00005   0.00000   0.00000
  31  O 1   d 5      0.00001  -0.00001   0.00000   0.00005   0.00001  -0.00000
  32  O 1   d 1     -0.00006   0.00007  -0.00010   0.00265  -0.00002  -0.00001
  33  O 1   d 2     -0.00004  -0.00002   0.00016  -0.00032  -0.00006  -0.00004
  34  O 1   d 3     -0.00000   0.00004  -0.00010   0.00331   0.00007   0.00002
  35  O 1   d 4      0.00006   0.00006   0.00002   0.00030   0.00001  -0.00002
  36  O 1   d 5     -0.00000   0.00019  -0.00015   0.00056   0.00012   0.00015
  37  O 1   d 1     -0.00003   0.00008  -0.00017  -0.00052   0.00004  -0.00003
  38  O 1   d 2     -0.00010  -0.00003   0.00024   0.00038  -0.00018  -0.00004
  39  O 1   d 3     -0.00003   0.00017  -0.00017  -0.00033   0.00012   0.00002
  40  O 1   d 4      0.00012   0.00002  -0.00004  -0.00024   0.00007   0.00000
  41  O 1   d 5     -0.00011   0.00038  -0.00021  -0.00019   0.00076   0.00016
  42  O 1   f 1      0.00000   0.00000   0.00000   0.00018   0.00000   0.00000
  43  O 1   f 2     -0.00000  -0.00000   0.00000  -0.00001   0.00000  -0.00000
  44  O 1   f 3     -0.00000   0.00000  -0.00000   0.00004  -0.00000   0.00000
  45  O 1   f 4      0.00000  -0.00001  -0.00001   0.00000  -0.00000   0.00000
  46  O 1   f 5     -0.00000  -0.00000   0.00000   0.00006  -0.00000  -0.00000
  47  O 1   f 6      0.00000   0.00000  -0.00001   0.00002   0.00000   0.00000
  48  O 1   f 7     -0.00000   0.00000   0.00000  -0.00007   0.00000  -0.00000
  49  O 1   f 1      0.00000  -0.00001   0.00001  -0.00146  -0.00002  -0.00001
  50  O 1   f 2      0.00000   0.00001  -0.00000   0.00006  -0.00001   0.00000
  51  O 1   f 3      0.00000  -0.00001   0.00002  -0.00038  -0.00000  -0.00001
  52  O 1   f 4     -0.00000   0.00003   0.00005   0.00001   0.00000  -0.00001
  53  O 1   f 5      0.00001   0.00001  -0.00001  -0.00052   0.00001   0.00001
  54  O 1   f 6     -0.00001  -0.00002   0.00005  -0.00018  -0.00001  -0.00001
  55  O 1   f 7     -0.00000  -0.00002  -0.00001   0.00060   0.00000   0.00000
  56  O 1   f 1     -0.00002  -0.00011   0.00009   0.00055   0.00006  -0.00001
  57  O 1   f 2      0.00002  -0.00000  -0.00000  -0.00007   0.00005  -0.00000
  58  O 1   f 3      0.00002  -0.00005   0.00001   0.00009  -0.00010  -0.00002
  59  O 1   f 4      0.00004   0.00000   0.00007   0.00003  -0.00002  -0.00002
  60  O 1   f 5     -0.00004   0.00001   0.00000   0.00022   0.00003   0.00001
  61  O 1   f 6     -0.00006  -0.00003   0.00011   0.00018  -0.00003  -0.00002
  62  O 1   f 7      0.00001  -0.00000  -0.00003  -0.00011   0.00002  -0.00002
  63  O 1   g 1     -0.00000  -0.00000   0.00000   0.00008  -0.00000  -0.00000
  64  O 1   g 2      0.00000  -0.00000   0.00000   0.00000  -0.00000   0.00000
  65  O 1   g 3      0.00000   0.00000  -0.00000  -0.00005   0.00000   0.00000
  66  O 1   g 4     -0.00000   0.00000   0.00000   0.00002  -0.00000  -0.00000
  67  O 1   g 5     -0.00000   0.00000  -0.00000  -0.00009  -0.00000  -0.00000
  68  O 1   g 6     -0.00000  -0.00000  -0.00000  -0.00002   0.00000  -0.00000
  69  O 1   g 7     -0.00000  -0.00000   0.00000  -0.00001   0.00000  -0.00000
  70  O 1   g 8     -0.00000  -0.00000   0.00000   0.00001   0.00000  -0.00000
  71  O 1   g 9      0.00000   0.00000   0.00000  -0.00012  -0.00000  -0.00000
  72  O 1   g 1      0.00002  -0.00000   0.00001  -0.00008  -0.00002  -0.00001
  73  O 1   g 2     -0.00001  -0.00001  -0.00004  -0.00001   0.00000   0.00001
  74  O 1   g 3      0.00000  -0.00001   0.00001  -0.00009  -0.00000  -0.00000
  75  O 1   g 4      0.00000  -0.00000  -0.00005   0.00001   0.00001   0.00001
  76  O 1   g 5      0.00000  -0.00000   0.00001  -0.00008  -0.00000   0.00000
  77  O 1   g 6     -0.00001  -0.00001  -0.00000  -0.00001  -0.00001   0.00000
  78  O 1   g 7      0.00001  -0.00001   0.00000  -0.00004  -0.00001  -0.00000
  79  O 1   g 8      0.00001   0.00001  -0.00000  -0.00002  -0.00000   0.00000
  80  O 1   g 9     -0.00001   0.00000  -0.00001   0.00009   0.00000   0.00000
  81  O 1   h 1     -0.00000   0.00000   0.00000  -0.00001   0.00000   0.00000
  82  O 1   h 2      0.00000   0.00000   0.00000   0.00002   0.00000  -0.00000
  83  O 1   h 3      0.00000   0.00000  -0.00000   0.00008  -0.00000  -0.00000
  84  O 1   h 4     -0.00000  -0.00000  -0.00000  -0.00001  -0.00000  -0.00000
  85  O 1   h 5     -0.00000   0.00000   0.00000   0.00003   0.00000  -0.00000
  86  O 1   h 6     -0.00000  -0.00000  -0.00001  -0.00000   0.00000   0.00000
  87  O 1   h 7      0.00000  -0.00000  -0.00000   0.00003   0.00000  -0.00000
  88  O 1   h 8      0.00000   0.00000  -0.00001   0.00002   0.00000   0.00000
  89  O 1   h 9     -0.00000   0.00000   0.00000  -0.00003  -0.00000  -0.00000
  90  O 1   h10     -0.00000  -0.00000  -0.00001   0.00001   0.00000   0.00000
  91  O 1   h11      0.00000  -0.00001   0.00001  -0.00006   0.00000  -0.00000
  92  H 1   s       -0.00001   0.00000   0.00000  -0.00025   0.00000   0.00000
  93  H 1   s        0.00010   0.00004  -0.00003  -0.00172  -0.00001   0.00002
  94  H 1   s       -0.00003  -0.00043  -0.00014   0.01337  -0.00090  -0.00038
  95  H 1   s       -0.00027   0.00019  -0.00055   0.00377  -0.00085  -0.00029
  96  H 1   s       -0.00017   0.00005   0.00011  -0.00023  -0.00005  -0.00007
  97  H 1   px      -0.00000   0.00000   0.00000  -0.00023   0.00000   0.00000
  98  H 1   py       0.00000   0.00000  -0.00000   0.00006   0.00000   0.00000
  99  H 1   pz      -0.00000  -0.00000  -0.00000   0.00001   0.00000  -0.00000
 100  H 1   px       0.00004   0.00000  -0.00001   0.00030  -0.00002  -0.00001
 101  H 1   py      -0.00002  -0.00002   0.00001  -0.00005  -0.00000  -0.00000
 102  H 1   pz      -0.00000  -0.00000   0.00001  -0.00001  -0.00001   0.00000
 103  H 1   px      -0.00014  -0.00006  -0.00004   0.00972  -0.00023  -0.00016
 104  H 1   py       0.00000   0.00015  -0.00008  -0.00302   0.00004   0.00009
 105  H 1   pz       0.00012   0.00007  -0.00001  -0.00065   0.00011  -0.00000
 106  H 1   px      -0.00026  -0.00028  -0.00019   0.00353  -0.00029  -0.00017
 107  H 1   py       0.00007   0.00028   0.00003  -0.00156   0.00029   0.00006
 108  H 1   pz       0.00013   0.00018   0.00000  -0.00049   0.00010   0.00003
 109  H 1   d 1     -0.00000  -0.00001   0.00000   0.00006   0.00001  -0.00000
 110  H 1   d 2      0.00000   0.00001  -0.00000  -0.00000   0.00000  -0.00000
 111  H 1   d 3     -0.00000   0.00000   0.00000   0.00009   0.00000  -0.00000
 112  H 1   d 4     -0.00000  -0.00001  -0.00000   0.00000  -0.00000   0.00000
 113  H 1   d 5      0.00001   0.00000   0.00000  -0.00012   0.00000   0.00000
 114  H 1   d 1     -0.00001   0.00008  -0.00003  -0.00126  -0.00003   0.00003
 115  H 1   d 2     -0.00001  -0.00006   0.00001   0.00007  -0.00001   0.00000
 116  H 1   d 3      0.00000   0.00001  -0.00001  -0.00154   0.00001   0.00002
 117  H 1   d 4      0.00002   0.00008   0.00001  -0.00023   0.00001  -0.00000
 118  H 1   d 5     -0.00002  -0.00000  -0.00001   0.00220  -0.00004  -0.00002
 119  H 1   d 1      0.00006   0.00001  -0.00004  -0.00213   0.00009   0.00005
 120  H 1   d 2     -0.00004   0.00010  -0.00002   0.00017   0.00002  -0.00001
 121  H 1   d 3      0.00009   0.00003   0.00001  -0.00194  -0.00004   0.00003
 122  H 1   d 4      0.00013  -0.00005  -0.00001  -0.00057   0.00008   0.00001
 123  H 1   d 5     -0.00011  -0.00002  -0.00001   0.00270  -0.00001  -0.00003
 124  H 1   f 1     -0.00000   0.00000  -0.00000  -0.00019  -0.00000   0.00000
 125  H 1   f 2      0.00000   0.00000   0.00000   0.00002  -0.00000   0.00000
 126  H 1   f 3      0.00000  -0.00000   0.00000   0.00006  -0.00000  -0.00000
 127  H 1   f 4      0.00000  -0.00000  -0.00000   0.00003  -0.00000   0.00000
 128  H 1   f 5     -0.00000  -0.00000   0.00000  -0.00020   0.00000   0.00000
 129  H 1   f 6      0.00000   0.00000   0.00000  -0.00003  -0.00000  -0.00000
 130  H 1   f 7     -0.00000  -0.00000  -0.00000   0.00019  -0.00000  -0.00000
 131  H 1   f 1      0.00002   0.00003  -0.00002  -0.00094   0.00003   0.00001
 132  H 1   f 2     -0.00003  -0.00007   0.00000   0.00009   0.00001  -0.00000
 133  H 1   f 3     -0.00000  -0.00000   0.00001   0.00025   0.00001  -0.00001
 134  H 1   f 4     -0.00003  -0.00004  -0.00001   0.00015  -0.00001   0.00000
 135  H 1   f 5      0.00002   0.00000  -0.00001  -0.00100  -0.00002   0.00001
 136  H 1   f 6      0.00002   0.00001  -0.00000  -0.00017   0.00002  -0.00000
 137  H 1   f 7     -0.00002   0.00004  -0.00001   0.00081  -0.00001   0.00000
 138  H 1   g 1      0.00000   0.00000  -0.00000  -0.00012   0.00000   0.00000
 139  H 1   g 2     -0.00000  -0.00001   0.00000   0.00001   0.00000  -0.00000
 140  H 1   g 3      0.00000  -0.00000   0.00000   0.00005   0.00000  -0.00000
 141  H 1   g 4      0.00000   0.00000   0.00000  -0.00001  -0.00000  -0.00000
 142  H 1   g 5     -0.00000   0.00000   0.00000   0.00007   0.00000  -0.00000
 143  H 1   g 6     -0.00000  -0.00001  -0.00000   0.00002  -0.00000   0.00000
 144  H 1   g 7      0.00000  -0.00000   0.00000  -0.00010  -0.00000  -0.00000
 145  H 1   g 8      0.00000   0.00000   0.00000  -0.00002   0.00000  -0.00000
 146  H 1   g 9     -0.00000   0.00001  -0.00000   0.00006   0.00000   0.00000
 147  H 2   s       -0.00000  -0.00001  -0.00000  -0.00027   0.00000  -0.00000
 148  H 2   s        0.00002  -0.00000   0.00006  -0.00146  -0.00015  -0.00006
 149  H 2   s       -0.00024   0.00119  -0.00108   0.01279   0.00184   0.00068
 150  H 2   s        0.00107   0.00208  -0.00154   0.00249   0.00229   0.00062
 151  H 2   s        0.00001  -0.00012   0.00002   0.00015  -0.00002   0.00011
 152  H 2   px      -0.00000   0.00000   0.00000  -0.00001   0.00000  -0.00000
 153  H 2   py       0.00000  -0.00000   0.00001  -0.00024   0.00000  -0.00000
 154  H 2   pz      -0.00000   0.00000  -0.00000  -0.00001  -0.00000  -0.00000
 155  H 2   px       0.00000  -0.00001  -0.00001   0.00003  -0.00000   0.00001
 156  H 2   py      -0.00000   0.00001  -0.00001   0.00040  -0.00004   0.00001
 157  H 2   pz       0.00000  -0.00001  -0.00000   0.00003   0.00001   0.00000
 158  H 2   px      -0.00006   0.00003  -0.00001  -0.00013   0.00004  -0.00004
 159  H 2   py      -0.00004   0.00046  -0.00067   0.00966   0.00072   0.00036
 160  H 2   pz      -0.00002   0.00007   0.00023   0.00057  -0.00006  -0.00003
 161  H 2   px      -0.00012  -0.00010  -0.00020  -0.00012   0.00019  -0.00000
 162  H 2   py       0.00033   0.00084  -0.00008   0.00311   0.00106   0.00029
 163  H 2   pz      -0.00017  -0.00001   0.00041   0.00045  -0.00007  -0.00004
 164  H 2   d 1     -0.00000  -0.00000   0.00001  -0.00001   0.00000  -0.00001
 165  H 2   d 2     -0.00000  -0.00000  -0.00003  -0.00000  -0.00000   0.00000
 166  H 2   d 3      0.00000  -0.00000  -0.00001   0.00008   0.00001   0.00000
 167  H 2   d 4      0.00000  -0.00000   0.00001   0.00001  -0.00000  -0.00000
 168  H 2   d 5     -0.00000  -0.00000  -0.00000   0.00011   0.00000   0.00001
 169  H 2   d 1     -0.00001   0.00002  -0.00008   0.00007   0.00000   0.00003
 170  H 2   d 2      0.00001   0.00001   0.00021   0.00021  -0.00001  -0.00003
 171  H 2   d 3      0.00000  -0.00003   0.00008  -0.00151  -0.00007  -0.00003
 172  H 2   d 4     -0.00000   0.00000  -0.00004  -0.00002   0.00001   0.00002
 173  H 2   d 5      0.00001  -0.00005   0.00008  -0.00246  -0.00006  -0.00007
 174  H 2   d 1     -0.00008  -0.00001   0.00008  -0.00012   0.00010  -0.00008
 175  H 2   d 2     -0.00009   0.00003  -0.00007   0.00050  -0.00006   0.00001
 176  H 2   d 3     -0.00001  -0.00006   0.00007  -0.00176  -0.00010  -0.00008
 177  H 2   d 4      0.00000  -0.00001   0.00006   0.00001   0.00001  -0.00002
 178  H 2   d 5     -0.00004  -0.00012   0.00023  -0.00313  -0.00019  -0.00011
 179  H 2   f 1      0.00000  -0.00000   0.00001  -0.00026  -0.00001  -0.00000
 180  H 2   f 2     -0.00000   0.00000   0.00001  -0.00000  -0.00000  -0.00000
 181  H 2   f 3     -0.00000  -0.00000  -0.00000  -0.00020  -0.00001  -0.00000
 182  H 2   f 4      0.00000  -0.00000  -0.00001  -0.00003   0.00000  -0.00000
 183  H 2   f 5      0.00000  -0.00000   0.00000   0.00001  -0.00000  -0.00000
 184  H 2   f 6     -0.00000  -0.00000  -0.00000  -0.00003   0.00000   0.00000
 185  H 2   f 7      0.00000  -0.00000   0.00000  -0.00001   0.00000  -0.00000
 186  H 2   f 1     -0.00001  -0.00001   0.00004  -0.00117  -0.00001  -0.00004
 187  H 2   f 2      0.00000  -0.00000  -0.00005  -0.00000   0.00001   0.00002
 188  H 2   f 3      0.00001  -0.00001   0.00008  -0.00100  -0.00003  -0.00003
 189  H 2   f 4      0.00001  -0.00001  -0.00006  -0.00011   0.00001   0.00002
 190  H 2   f 5      0.00000   0.00000  -0.00000  -0.00005   0.00000   0.00000
 191  H 2   f 6      0.00002  -0.00000  -0.00009  -0.00015   0.00002   0.00001
 192  H 2   f 7      0.00002  -0.00001   0.00004  -0.00000  -0.00002  -0.00000
 193  H 2   g 1      0.00000  -0.00000   0.00000  -0.00001  -0.00000  -0.00000
 194  H 2   g 2      0.00000  -0.00000  -0.00001  -0.00002   0.00000   0.00000
 195  H 2   g 3      0.00000  -0.00000   0.00000  -0.00001  -0.00000  -0.00000
 196  H 2   g 4      0.00000  -0.00000  -0.00001  -0.00002   0.00000   0.00000
 197  H 2   g 5     -0.00000   0.00000  -0.00000   0.00007   0.00000   0.00000
 198  H 2   g 6     -0.00000   0.00000   0.00000  -0.00000   0.00000  -0.00000
 199  H 2   g 7     -0.00000  -0.00000  -0.00001   0.00010   0.00000   0.00000
 200  H 2   g 8     -0.00000  -0.00000   0.00000  -0.00000  -0.00000  -0.00000
 201  H 2   g 9      0.00000   0.00000  -0.00000   0.00012   0.00000   0.00000
 202  O 2   s       -0.00000  -0.00000   0.00001  -0.00003  -0.97848   0.00000
 203  O 2   s       -0.00000  -0.00000   0.00001  -0.00002  -0.03091   0.00000
 204  O 2   s       -0.00001  -0.00000   0.00001  -0.00003  -0.08500   0.00001
 205  O 2   s        0.00003  -0.00004  -0.00001   0.00001   0.01495  -0.00001
 206  O 2   s        0.00010   0.00040  -0.00017   0.00045   0.01718  -0.00010
 207  O 2   s        0.00078   0.00062   0.00006   0.00033   0.00277   0.00010
 208  O 2   px      -0.00000   0.00000   0.00000   0.00000  -0.00070   0.00000
 209  O 2   py       0.00000  -0.00000   0.00000   0.00000   0.00065   0.00000
 210  O 2   pz      -0.00000   0.00000  -0.00000   0.00000  -0.00068  -0.00000
 211  O 2   px       0.00000  -0.00001  -0.00000  -0.00001  -0.00034  -0.00000
 212  O 2   py       0.00000   0.00000  -0.00001   0.00001   0.00039  -0.00000
 213  O 2   pz       0.00000  -0.00001   0.00000  -0.00001  -0.00034   0.00000
 214  O 2   px       0.00001   0.00008   0.00002   0.00003   0.00515   0.00000
 215  O 2   py      -0.00001   0.00003   0.00008  -0.00012  -0.00482   0.00004
 216  O 2   pz       0.00001   0.00005  -0.00002   0.00004   0.00492  -0.00002
 217  O 2   px      -0.00004   0.00010  -0.00000   0.00019   0.00135   0.00004
 218  O 2   py      -0.00010  -0.00013   0.00002   0.00009  -0.00037   0.00004
 219  O 2   pz      -0.00004   0.00012  -0.00006   0.00016   0.00093  -0.00001
 220  O 2   px       0.00015   0.00009  -0.00000   0.00011   0.00034   0.00002
 221  O 2   py       0.00004   0.00000  -0.00001   0.00004   0.00017  -0.00001
 222  O 2   pz       0.00013   0.00008  -0.00000   0.00005   0.00017   0.00000
 223  O 2   d 1     -0.00000   0.00000  -0.00000   0.00000  -0.00016   0.00000
 224  O 2   d 2      0.00000  -0.00000  -0.00000   0.00000   0.00000   0.00000
 225  O 2   d 3      0.00000  -0.00000  -0.00000   0.00000   0.00014  -0.00000
 226  O 2   d 4     -0.00000  -0.00000   0.00000  -0.00000  -0.00018   0.00000
 227  O 2   d 5     -0.00000  -0.00000  -0.00000   0.00000   0.00007  -0.00000
 228  O 2   d 1      0.00000  -0.00000   0.00000  -0.00000   0.00023  -0.00000
 229  O 2   d 2      0.00000   0.00000  -0.00000  -0.00000  -0.00003  -0.00000
 230  O 2   d 3     -0.00000   0.00000   0.00000  -0.00000  -0.00023   0.00000
 231  O 2   d 4      0.00001   0.00000  -0.00000   0.00000   0.00032  -0.00000
 232  O 2   d 5      0.00000   0.00000   0.00000  -0.00001  -0.00010   0.00000
 233  O 2   d 1      0.00001   0.00003  -0.00002   0.00001   0.00255  -0.00001
 234  O 2   d 2     -0.00001  -0.00000   0.00002  -0.00000   0.00038   0.00001
 235  O 2   d 3     -0.00001  -0.00003   0.00001  -0.00003  -0.00193   0.00001
 236  O 2   d 4     -0.00001   0.00002   0.00001   0.00002   0.00184   0.00000
 237  O 2   d 5      0.00001   0.00001   0.00003  -0.00003  -0.00104   0.00001
 238  O 2   d 1      0.00008   0.00005   0.00002  -0.00005  -0.00047   0.00000
 239  O 2   d 2      0.00002  -0.00004   0.00004   0.00001   0.00004   0.00003
 240  O 2   d 3     -0.00003  -0.00004  -0.00001   0.00005   0.00036  -0.00001
 241  O 2   d 4      0.00002  -0.00000   0.00001   0.00007  -0.00021   0.00001
 242  O 2   d 5      0.00007  -0.00004  -0.00000   0.00007   0.00029  -0.00001
 243  O 2   f 1      0.00000  -0.00000   0.00000  -0.00000  -0.00014   0.00000
 244  O 2   f 2      0.00000   0.00000   0.00000   0.00000  -0.00008  -0.00000
 245  O 2   f 3     -0.00000   0.00000   0.00000  -0.00000  -0.00007   0.00000
 246  O 2   f 4      0.00000   0.00000  -0.00000   0.00000   0.00007  -0.00000
 247  O 2   f 5      0.00000   0.00000  -0.00000   0.00000  -0.00002  -0.00000
 248  O 2   f 6      0.00000  -0.00000  -0.00000   0.00000  -0.00003  -0.00000
 249  O 2   f 7     -0.00000  -0.00000   0.00000   0.00000  -0.00007   0.00000
 250  O 2   f 1      0.00000   0.00000  -0.00001   0.00002   0.00110  -0.00000
 251  O 2   f 2     -0.00000   0.00000  -0.00000  -0.00000   0.00059  -0.00000
 252  O 2   f 3      0.00000  -0.00000  -0.00000   0.00001   0.00055  -0.00000
 253  O 2   f 4     -0.00000  -0.00000   0.00000  -0.00000  -0.00060   0.00000
 254  O 2   f 5     -0.00000  -0.00000  -0.00000  -0.00000   0.00017  -0.00000
 255  O 2   f 6     -0.00000   0.00000   0.00000  -0.00000   0.00025   0.00000
 256  O 2   f 7      0.00001   0.00000  -0.00000  -0.00001   0.00055  -0.00000
 257  O 2   f 1     -0.00003   0.00002   0.00000  -0.00001  -0.00040   0.00001
 258  O 2   f 2     -0.00001   0.00001  -0.00001   0.00001  -0.00020   0.00000
 259  O 2   f 3     -0.00001   0.00000   0.00001  -0.00002  -0.00028   0.00001
 260  O 2   f 4      0.00001  -0.00002   0.00001  -0.00001   0.00023   0.00000
 261  O 2   f 5     -0.00000  -0.00001   0.00000  -0.00000  -0.00012  -0.00000
 262  O 2   f 6      0.00001  -0.00002   0.00002   0.00000  -0.00010   0.00000
 263  O 2   f 7      0.00005   0.00002   0.00001  -0.00006  -0.00033  -0.00001
 264  O 2   g 1      0.00000   0.00000   0.00000  -0.00000  -0.00000  -0.00000
 265  O 2   g 2      0.00000  -0.00000  -0.00000   0.00000   0.00011  -0.00000
 266  O 2   g 3      0.00000   0.00000   0.00000  -0.00000   0.00001  -0.00000
 267  O 2   g 4     -0.00000  -0.00000  -0.00000   0.00000   0.00002  -0.00000
 268  O 2   g 5      0.00000  -0.00000  -0.00000   0.00000   0.00000  -0.00000
 269  O 2   g 6      0.00000  -0.00000  -0.00000   0.00000  -0.00004   0.00000
 270  O 2   g 7      0.00000   0.00000  -0.00000   0.00000   0.00008  -0.00000
 271  O 2   g 8     -0.00000  -0.00000  -0.00000   0.00000   0.00006   0.00000
 272  O 2   g 9      0.00000  -0.00000  -0.00000   0.00000   0.00008  -0.00000
 273  O 2   g 1     -0.00001  -0.00000  -0.00000   0.00002  -0.00003   0.00000
 274  O 2   g 2     -0.00001   0.00000  -0.00000   0.00000   0.00003   0.00000
 275  O 2   g 3     -0.00001  -0.00000  -0.00000   0.00001  -0.00005   0.00000
 276  O 2   g 4      0.00000   0.00000  -0.00000  -0.00000  -0.00008  -0.00000
 277  O 2   g 5      0.00000   0.00000   0.00000  -0.00000   0.00002   0.00000
 278  O 2   g 6     -0.00000  -0.00000  -0.00000  -0.00000  -0.00006  -0.00000
 279  O 2   g 7     -0.00000  -0.00000   0.00000  -0.00000   0.00000   0.00000
 280  O 2   g 8      0.00001   0.00000   0.00000  -0.00001  -0.00008  -0.00000
 281  O 2   g 9     -0.00000   0.00000   0.00000  -0.00000  -0.00011   0.00000
 282  O 2   h 1      0.00000   0.00000   0.00000  -0.00000   0.00000  -0.00000
 283  O 2   h 2     -0.00000  -0.00000   0.00000   0.00000   0.00004   0.00000
 284  O 2   h 3     -0.00000  -0.00000  -0.00000   0.00000   0.00000  -0.00000
 285  O 2   h 4     -0.00000  -0.00000   0.00000   0.00000  -0.00003   0.00000
 286  O 2   h 5      0.00000   0.00000  -0.00000   0.00000  -0.00005  -0.00000
 287  O 2   h 6      0.00000   0.00000  -0.00000   0.00000   0.00003  -0.00000
 288  O 2   h 7      0.00000   0.00000  -0.00000   0.00000  -0.00004  -0.00000
 289  O 2   h 8      0.00000   0.00000  -0.00000  -0.00000  -0.00000  -0.00000
 290  O 2   h 9     -0.00000  -0.00000   0.00000   0.00000  -0.00001   0.00000
 291  O 2   h10      0.00000   0.00000   0.00000  -0.00000  -0.00000  -0.00000
 292  O 2   h11     -0.00000  -0.00000   0.00000   0.00000  -0.00006   0.00000
 293  H 3   s       -0.00000   0.00000   0.00000  -0.00001   0.00017   0.00000
 294  H 3   s        0.00002  -0.00001  -0.00004   0.00010   0.00196  -0.00002
 295  H 3   s       -0.00005  -0.00018   0.00015  -0.00017  -0.01020   0.00007
 296  H 3   s       -0.00026  -0.00026   0.00001  -0.00002  -0.00160   0.00002
 297  H 3   s       -0.00015  -0.00000  -0.00001  -0.00005   0.00015  -0.00006
 298  H 3   px      -0.00000   0.00000  -0.00000  -0.00000   0.00003  -0.00000
 299  H 3   py       0.00000   0.00000  -0.00000  -0.00000   0.00020  -0.00000
 300  H 3   pz      -0.00000   0.00000  -0.00000  -0.00000  -0.00003  -0.00000
 301  H 3   px       0.00000  -0.00000  -0.00000   0.00001   0.00001   0.00000
 302  H 3   py      -0.00000  -0.00000   0.00000   0.00003   0.00006  -0.00000
 303  H 3   pz       0.00000  -0.00000   0.00000  -0.00000  -0.00001   0.00000
 304  H 3   px       0.00005  -0.00000   0.00002  -0.00008  -0.00118  -0.00002
 305  H 3   py      -0.00002  -0.00007   0.00008  -0.00011  -0.00815   0.00005
 306  H 3   pz       0.00001  -0.00001   0.00001  -0.00000   0.00135   0.00000
 307  H 3   px       0.00009   0.00004   0.00005  -0.00018  -0.00075   0.00001
 308  H 3   py      -0.00020  -0.00009   0.00010  -0.00027  -0.00261   0.00003
 309  H 3   pz       0.00006  -0.00003   0.00007  -0.00004   0.00025   0.00002
 310  H 3   d 1     -0.00000   0.00000  -0.00000   0.00001   0.00005  -0.00000
 311  H 3   d 2      0.00000   0.00000  -0.00000  -0.00000  -0.00008   0.00000
 312  H 3   d 3     -0.00000  -0.00000   0.00000  -0.00000  -0.00012   0.00000
 313  H 3   d 4     -0.00000   0.00000  -0.00000   0.00000   0.00001  -0.00000
 314  H 3   d 5     -0.00000  -0.00000   0.00000  -0.00000  -0.00020   0.00000
 315  H 3   d 1      0.00001  -0.00000   0.00001  -0.00007  -0.00055   0.00000
 316  H 3   d 2     -0.00001  -0.00001   0.00000   0.00001   0.00080  -0.00000
 317  H 3   d 3      0.00001   0.00001  -0.00001   0.00001   0.00126  -0.00001
 318  H 3   d 4      0.00000  -0.00001   0.00000  -0.00000   0.00002   0.00000
 319  H 3   d 5      0.00001   0.00001  -0.00002   0.00001   0.00218  -0.00001
 320  H 3   d 1      0.00006   0.00002   0.00003  -0.00001  -0.00093  -0.00001
 321  H 3   d 2      0.00006  -0.00001   0.00003  -0.00000   0.00083   0.00001
 322  H 3   d 3      0.00000   0.00000  -0.00003   0.00007   0.00153  -0.00001
 323  H 3   d 4     -0.00001   0.00001  -0.00000   0.00002   0.00016   0.00000
 324  H 3   d 5      0.00004   0.00001  -0.00004   0.00009   0.00269  -0.00003
 325  H 3   f 1      0.00000   0.00000  -0.00000   0.00000   0.00022  -0.00000
 326  H 3   f 2      0.00000  -0.00000  -0.00000   0.00000   0.00002  -0.00000
 327  H 3   f 3      0.00000   0.00000  -0.00000  -0.00000   0.00016  -0.00000
 328  H 3   f 4      0.00000   0.00000   0.00000  -0.00000  -0.00007   0.00000
 329  H 3   f 5     -0.00000  -0.00000  -0.00000   0.00000   0.00002   0.00000
 330  H 3   f 6      0.00000   0.00000   0.00000   0.00000  -0.00010   0.00000
 331  H 3   f 7      0.00000   0.00000  -0.00000   0.00000   0.00008   0.00000
 332  H 3   f 1      0.00001   0.00000  -0.00001  -0.00000   0.00109  -0.00001
 333  H 3   f 2     -0.00001   0.00000   0.00000   0.00000   0.00006   0.00000
 334  H 3   f 3     -0.00000  -0.00000  -0.00001   0.00003   0.00082  -0.00001
 335  H 3   f 4     -0.00000   0.00000  -0.00000  -0.00000  -0.00040  -0.00000
 336  H 3   f 5     -0.00000   0.00000  -0.00000   0.00001   0.00014  -0.00000
 337  H 3   f 6     -0.00001   0.00000  -0.00000  -0.00001  -0.00047  -0.00000
 338  H 3   f 7     -0.00001  -0.00000  -0.00001   0.00003   0.00048  -0.00000
 339  H 3   g 1     -0.00000  -0.00000  -0.00000   0.00000   0.00008  -0.00000
 340  H 3   g 2     -0.00000   0.00000  -0.00000  -0.00000  -0.00007   0.00000
 341  H 3   g 3     -0.00000  -0.00000  -0.00000   0.00000   0.00003  -0.00000
 342  H 3   g 4      0.00000   0.00000  -0.00000  -0.00000  -0.00009  -0.00000
 343  H 3   g 5     -0.00000   0.00000   0.00000  -0.00000  -0.00006   0.00000
 344  H 3   g 6      0.00000   0.00000  -0.00000  -0.00000  -0.00001  -0.00000
 345  H 3   g 7     -0.00000  -0.00000   0.00000  -0.00000  -0.00010   0.00000
 346  H 3   g 8      0.00000   0.00000  -0.00000  -0.00000  -0.00002  -0.00000
 347  H 3   g 9     -0.00000  -0.00000   0.00000   0.00000  -0.00014   0.00000
 348  H 4   s       -0.00000  -0.00000   0.00000   0.00000   0.00026   0.00000
 349  H 4   s        0.00003   0.00003  -0.00000   0.00001   0.00141  -0.00001
 350  H 4   s       -0.00006  -0.00023  -0.00000  -0.00026  -0.01138  -0.00001
 351  H 4   s       -0.00051  -0.00046  -0.00007  -0.00022  -0.00222  -0.00007
 352  H 4   s        0.00004   0.00000   0.00001   0.00001  -0.00029   0.00003
 353  H 4   px      -0.00000   0.00000  -0.00000   0.00000  -0.00019   0.00000
 354  H 4   py       0.00000   0.00000  -0.00000   0.00000  -0.00006  -0.00000
 355  H 4   pz       0.00000   0.00000   0.00000  -0.00000  -0.00012  -0.00000
 356  H 4   px      -0.00000  -0.00001   0.00000  -0.00000   0.00024   0.00000
 357  H 4   py      -0.00001  -0.00000   0.00000  -0.00001   0.00006   0.00000
 358  H 4   pz      -0.00001  -0.00001  -0.00000   0.00001   0.00016   0.00000
 359  H 4   px      -0.00001   0.00011  -0.00000   0.00010   0.00722  -0.00000
 360  H 4   py       0.00007   0.00005   0.00001   0.00003   0.00245  -0.00002
 361  H 4   pz       0.00004   0.00010   0.00000   0.00002   0.00453  -0.00000
 362  H 4   px       0.00014   0.00018   0.00003   0.00007   0.00220   0.00001
 363  H 4   py       0.00004   0.00007   0.00002  -0.00001   0.00076  -0.00001
 364  H 4   pz       0.00011   0.00011   0.00001   0.00004   0.00139   0.00001
 365  H 4   d 1      0.00000   0.00000   0.00000   0.00000   0.00006  -0.00000
 366  H 4   d 2      0.00000   0.00000   0.00000  -0.00000   0.00003  -0.00000
 367  H 4   d 3     -0.00000   0.00000   0.00000  -0.00000  -0.00002   0.00000
 368  H 4   d 4      0.00000   0.00000  -0.00000   0.00000   0.00013  -0.00000
 369  H 4   d 5     -0.00000   0.00000   0.00000  -0.00000   0.00007  -0.00000
 370  H 4   d 1     -0.00001  -0.00001  -0.00000  -0.00000  -0.00102   0.00000
 371  H 4   d 2     -0.00001  -0.00001  -0.00000   0.00001  -0.00059   0.00000
 372  H 4   d 3     -0.00000  -0.00000  -0.00000   0.00001   0.00032  -0.00000
 373  H 4   d 4      0.00000  -0.00002   0.00000  -0.00002  -0.00207   0.00000
 374  H 4   d 5      0.00001  -0.00001   0.00000  -0.00000  -0.00137  -0.00000
 375  H 4   d 1     -0.00003  -0.00004  -0.00001   0.00001  -0.00127   0.00001
 376  H 4   d 2     -0.00003  -0.00003  -0.00000   0.00001  -0.00082   0.00001
 377  H 4   d 3     -0.00002   0.00000   0.00001   0.00001   0.00033  -0.00000
 378  H 4   d 4     -0.00003  -0.00007  -0.00000  -0.00001  -0.00232  -0.00000
 379  H 4   d 5      0.00000  -0.00004   0.00000  -0.00003  -0.00168  -0.00000
 380  H 4   f 1     -0.00000  -0.00000   0.00000   0.00000   0.00012   0.00000
 381  H 4   f 2      0.00000   0.00000  -0.00000   0.00000   0.00014  -0.00000
 382  H 4   f 3      0.00000   0.00000   0.00000  -0.00000   0.00001   0.00000
 383  H 4   f 4     -0.00000  -0.00000  -0.00000   0.00000  -0.00014   0.00000
 384  H 4   f 5      0.00000   0.00000   0.00000   0.00000   0.00005  -0.00000
 385  H 4   f 6     -0.00000  -0.00000  -0.00000   0.00000   0.00020  -0.00000
 386  H 4   f 7     -0.00000  -0.00000  -0.00000   0.00000   0.00009   0.00000
 387  H 4   f 1      0.00000   0.00001   0.00000  -0.00001   0.00061  -0.00000
 388  H 4   f 2      0.00001   0.00001   0.00000  -0.00001   0.00060  -0.00000
 389  H 4   f 3      0.00000   0.00000  -0.00000  -0.00000   0.00005  -0.00000
 390  H 4   f 4     -0.00000  -0.00001  -0.00000  -0.00000  -0.00070   0.00000
 391  H 4   f 5      0.00001   0.00001  -0.00000  -0.00000   0.00025   0.00000
 392  H 4   f 6      0.00000   0.00001  -0.00000   0.00000   0.00087   0.00000
 393  H 4   f 7     -0.00000   0.00000  -0.00000   0.00001   0.00039   0.00000
 394  H 4   g 1      0.00000  -0.00000  -0.00000   0.00000  -0.00007   0.00000
 395  H 4   g 2     -0.00000  -0.00000  -0.00000  -0.00000  -0.00009   0.00000
 396  H 4   g 3     -0.00000  -0.00000   0.00000   0.00000  -0.00003   0.00000
 397  H 4   g 4      0.00000   0.00000   0.00000   0.00000   0.00003  -0.00000
 398  H 4   g 5      0.00000   0.00000  -0.00000  -0.00000   0.00006  -0.00000
 399  H 4   g 6     -0.00000   0.00000  -0.00000  -0.00000   0.00007  -0.00000
 400  H 4   g 7     -0.00000  -0.00000   0.00000  -0.00000  -0.00006   0.00000
 401  H 4   g 8      0.00000  -0.00000   0.00000  -0.00000  -0.00008  -0.00000
 402  H 4   g 9      0.00000   0.00000   0.00000  -0.00000  -0.00002  -0.00000
 403  O 3   s       -0.97856   0.00002  -0.00012   0.00002  -0.00000  -0.00000
 404  O 3   s       -0.03106   0.00000  -0.00002  -0.00000  -0.00001  -0.00000
 405  O 3   s       -0.08526   0.00000  -0.00005   0.00000  -0.00001  -0.00001
 406  O 3   s        0.01601  -0.00000   0.00023  -0.00010  -0.00002   0.00002
 407  O 3   s        0.01519  -0.00001  -0.00055   0.00034   0.00049   0.00004
 408  O 3   s        0.00439  -0.00012  -0.00103   0.00056   0.00063  -0.00000
 409  O 3   px       0.00047  -0.00000  -0.00000   0.00000   0.00000  -0.00000
 410  O 3   py      -0.00061   0.00000   0.00000   0.00000   0.00000   0.00000
 411  O 3   pz      -0.00091   0.00000  -0.00001   0.00000   0.00000  -0.00000
 412  O 3   px       0.00023   0.00000   0.00001  -0.00001  -0.00000   0.00001
 413  O 3   py      -0.00049  -0.00001  -0.00001  -0.00001  -0.00001  -0.00001
 414  O 3   pz      -0.00042  -0.00001   0.00004  -0.00003  -0.00001   0.00000
 415  O 3   px      -0.00299  -0.00000  -0.00007   0.00018  -0.00002   0.00001
 416  O 3   py       0.00600   0.00003   0.00009   0.00013   0.00006   0.00006
 417  O 3   pz       0.00677   0.00002  -0.00010   0.00011   0.00008   0.00000
 418  O 3   px       0.00053   0.00001  -0.00032  -0.00004  -0.00009  -0.00002
 419  O 3   py       0.00024   0.00010  -0.00101   0.00019   0.00015  -0.00009
 420  O 3   pz       0.00123   0.00002  -0.00067   0.00007   0.00020  -0.00002
 421  O 3   px       0.00001   0.00002  -0.00010   0.00003  -0.00006   0.00004
 422  O 3   py      -0.00017   0.00004   0.00008   0.00006  -0.00001  -0.00003
 423  O 3   pz       0.00041  -0.00003  -0.00009   0.00007   0.00007   0.00000
 424  O 3   d 1     -0.00013  -0.00000  -0.00000  -0.00000  -0.00000  -0.00000
 425  O 3   d 2     -0.00017   0.00000  -0.00001   0.00000   0.00000  -0.00000
 426  O 3   d 3      0.00011   0.00000  -0.00000   0.00000   0.00000  -0.00000
 427  O 3   d 4      0.00002   0.00000  -0.00000  -0.00000  -0.00000  -0.00000
 428  O 3   d 5     -0.00012  -0.00000  -0.00000   0.00000   0.00000   0.00000
 429  O 3   d 1      0.00021   0.00000   0.00001   0.00000   0.00000   0.00000
 430  O 3   d 2      0.00029  -0.00000   0.00003  -0.00000  -0.00000   0.00000
 431  O 3   d 3     -0.00018  -0.00000   0.00002  -0.00000  -0.00000   0.00000
 432  O 3   d 4     -0.00004  -0.00000   0.00001  -0.00000   0.00000   0.00000
 433  O 3   d 5      0.00019   0.00000   0.00002  -0.00001   0.00000  -0.00000
 434  O 3   d 1      0.00195  -0.00002  -0.00003   0.00005   0.00001   0.00000
 435  O 3   d 2      0.00204   0.00003  -0.00012   0.00008   0.00003   0.00001
 436  O 3   d 3     -0.00106   0.00002  -0.00009   0.00001  -0.00000  -0.00001
 437  O 3   d 4     -0.00004   0.00000  -0.00007   0.00009  -0.00002   0.00001
 438  O 3   d 5      0.00145  -0.00003  -0.00008  -0.00001   0.00000   0.00001
 439  O 3   d 1     -0.00016  -0.00006  -0.00012   0.00005   0.00001  -0.00007
 440  O 3   d 2     -0.00098   0.00006  -0.00051   0.00006   0.00002  -0.00007
 441  O 3   d 3      0.00012   0.00000  -0.00018  -0.00013  -0.00001  -0.00002
 442  O 3   d 4      0.00043  -0.00001  -0.00018   0.00003  -0.00004   0.00002
 443  O 3   d 5     -0.00050  -0.00006  -0.00021   0.00007   0.00001   0.00001
 444  O 3   f 1     -0.00001   0.00000   0.00000   0.00000  -0.00000  -0.00000
 445  O 3   f 2     -0.00010  -0.00000   0.00000  -0.00000  -0.00000  -0.00000
 446  O 3   f 3     -0.00003  -0.00000  -0.00000  -0.00000   0.00000  -0.00000
 447  O 3   f 4      0.00009  -0.00000  -0.00000  -0.00000   0.00000  -0.00000
 448  O 3   f 5     -0.00004   0.00000   0.00000  -0.00000   0.00000  -0.00000
 449  O 3   f 6     -0.00004   0.00000  -0.00000   0.00000  -0.00000  -0.00000
 450  O 3   f 7      0.00013  -0.00000   0.00000   0.00000   0.00000  -0.00000
 451  O 3   f 1      0.00006  -0.00000  -0.00002  -0.00000   0.00000   0.00000
 452  O 3   f 2      0.00072   0.00000  -0.00000   0.00002   0.00000   0.00001
 453  O 3   f 3      0.00024   0.00000   0.00001   0.00001  -0.00000   0.00000
 454  O 3   f 4     -0.00075   0.00000   0.00001   0.00001  -0.00000   0.00000
 455  O 3   f 5      0.00036   0.00000  -0.00001   0.00001  -0.00000   0.00000
 456  O 3   f 6      0.00026  -0.00000   0.00001  -0.00001   0.00000   0.00000
 457  O 3   f 7     -0.00103   0.00000  -0.00001  -0.00001  -0.00001   0.00000
 458  O 3   f 1      0.00000  -0.00000  -0.00011  -0.00001   0.00001   0.00002
 459  O 3   f 2     -0.00012  -0.00002  -0.00007   0.00002   0.00000  -0.00003
 460  O 3   f 3     -0.00025   0.00002  -0.00015   0.00002  -0.00001  -0.00001
 461  O 3   f 4      0.00021  -0.00001  -0.00006  -0.00005  -0.00001  -0.00000
 462  O 3   f 5     -0.00007   0.00000  -0.00004   0.00004  -0.00002   0.00002
 463  O 3   f 6     -0.00012  -0.00003  -0.00009   0.00001   0.00001  -0.00001
 464  O 3   f 7      0.00036   0.00001   0.00004  -0.00002  -0.00000  -0.00001
 465  O 3   g 1     -0.00003  -0.00000   0.00000  -0.00000  -0.00000  -0.00000
 466  O 3   g 2      0.00001  -0.00000   0.00001   0.00000   0.00000  -0.00000
 467  O 3   g 3      0.00004   0.00000   0.00000   0.00000   0.00000   0.00000
 468  O 3   g 4     -0.00003   0.00000   0.00001   0.00000   0.00000  -0.00000
 469  O 3   g 5     -0.00004   0.00000   0.00000   0.00000  -0.00000  -0.00000
 470  O 3   g 6      0.00004  -0.00000  -0.00000  -0.00000   0.00000  -0.00000
 471  O 3   g 7     -0.00004   0.00000   0.00000  -0.00000  -0.00000  -0.00000
 472  O 3   g 8     -0.00014  -0.00000  -0.00001  -0.00000  -0.00000   0.00000
 473  O 3   g 9      0.00004   0.00000   0.00000  -0.00000   0.00000  -0.00000
 474  O 3   g 1      0.00000  -0.00000  -0.00000   0.00000  -0.00000  -0.00000
 475  O 3   g 2      0.00002  -0.00000  -0.00005  -0.00000   0.00000   0.00000
 476  O 3   g 3      0.00005   0.00000  -0.00002   0.00000  -0.00000  -0.00000
 477  O 3   g 4     -0.00005   0.00000  -0.00003  -0.00000  -0.00000   0.00000
 478  O 3   g 5     -0.00001  -0.00000   0.00001  -0.00001  -0.00000   0.00000
 479  O 3   g 6     -0.00001   0.00000  -0.00000   0.00001  -0.00000   0.00000
 480  O 3   g 7     -0.00001  -0.00000   0.00000  -0.00000   0.00000  -0.00000
 481  O 3   g 8     -0.00009   0.00000   0.00003  -0.00001  -0.00000   0.00000
 482  O 3   g 9     -0.00002   0.00000  -0.00000   0.00000  -0.00000   0.00000
 483  O 3   h 1     -0.00003   0.00000   0.00000  -0.00000   0.00000   0.00000
 484  O 3   h 2     -0.00004  -0.00000  -0.00000  -0.00000  -0.00000  -0.00000
 485  O 3   h 3      0.00001  -0.00000  -0.00001   0.00000  -0.00000   0.00000
 486  O 3   h 4     -0.00001   0.00000  -0.00001   0.00000  -0.00000  -0.00000
 487  O 3   h 5     -0.00004  -0.00000  -0.00000  -0.00000  -0.00000   0.00000
 488  O 3   h 6      0.00003  -0.00000   0.00000   0.00000   0.00000   0.00000
 489  O 3   h 7     -0.00002   0.00000  -0.00000   0.00000   0.00000  -0.00000
 490  O 3   h 8     -0.00003  -0.00000   0.00000  -0.00000   0.00000   0.00000
 491  O 3   h 9     -0.00004  -0.00000   0.00001  -0.00000  -0.00000   0.00000
 492  O 3   h10      0.00000   0.00000   0.00000   0.00000  -0.00000   0.00000
 493  O 3   h11     -0.00004   0.00000   0.00001   0.00000   0.00000  -0.00000
 494  H 5   s        0.00030   0.00000  -0.00001  -0.00000   0.00000  -0.00000
 495  H 5   s        0.00097   0.00001   0.00003   0.00006   0.00002   0.00002
 496  H 5   s       -0.01107  -0.00011   0.00125  -0.00066  -0.00027   0.00003
 497  H 5   s       -0.00290  -0.00001   0.00052  -0.00023  -0.00023  -0.00003
 498  H 5   s        0.00009  -0.00005  -0.00006   0.00001   0.00006   0.00000
 499  H 5   px      -0.00012   0.00000  -0.00001  -0.00000  -0.00000  -0.00000
 500  H 5   py      -0.00017  -0.00000   0.00001  -0.00000  -0.00000   0.00000
 501  H 5   pz      -0.00015  -0.00000  -0.00000  -0.00001  -0.00000  -0.00000
 502  H 5   px       0.00034  -0.00001   0.00002  -0.00000   0.00000  -0.00000
 503  H 5   py       0.00037   0.00000  -0.00004   0.00000   0.00000  -0.00001
 504  H 5   pz       0.00034   0.00000  -0.00001   0.00005   0.00000  -0.00000
 505  H 5   px       0.00354   0.00009  -0.00013   0.00016   0.00005   0.00000
 506  H 5   py       0.00632   0.00001  -0.00042   0.00025   0.00008   0.00004
 507  H 5   pz       0.00495  -0.00001   0.00003   0.00004   0.00008   0.00002
 508  H 5   px       0.00121   0.00011  -0.00006   0.00008   0.00008   0.00003
 509  H 5   py       0.00230  -0.00002  -0.00026   0.00008   0.00010   0.00003
 510  H 5   pz       0.00172   0.00002  -0.00005   0.00028   0.00012   0.00000
 511  H 5   d 1      0.00004   0.00000  -0.00000   0.00001   0.00000  -0.00000
 512  H 5   d 2      0.00008  -0.00000   0.00001  -0.00000   0.00000   0.00000
 513  H 5   d 3      0.00001   0.00000   0.00000   0.00001   0.00000  -0.00000
 514  H 5   d 4      0.00004   0.00000   0.00001  -0.00000   0.00000   0.00000
 515  H 5   d 5     -0.00004  -0.00000   0.00000  -0.00000  -0.00000  -0.00000
 516  H 5   d 1     -0.00144  -0.00001   0.00005  -0.00006  -0.00001  -0.00000
 517  H 5   d 2     -0.00194   0.00001   0.00000  -0.00002  -0.00002  -0.00001
 518  H 5   d 3      0.00003   0.00000  -0.00005  -0.00002  -0.00001  -0.00000
 519  H 5   d 4     -0.00116  -0.00001  -0.00003  -0.00002  -0.00002  -0.00001
 520  H 5   d 5      0.00078  -0.00000  -0.00007   0.00003   0.00000   0.00000
 521  H 5   d 1     -0.00172  -0.00004   0.00003  -0.00002  -0.00003  -0.00002
 522  H 5   d 2     -0.00223   0.00001  -0.00001  -0.00009  -0.00004  -0.00002
 523  H 5   d 3      0.00018   0.00004  -0.00007   0.00009   0.00002   0.00001
 524  H 5   d 4     -0.00141  -0.00002  -0.00012  -0.00005  -0.00002  -0.00001
 525  H 5   d 5      0.00107  -0.00005  -0.00002  -0.00001   0.00001   0.00002
 526  H 5   f 1      0.00001   0.00000   0.00001   0.00000   0.00000   0.00000
 527  H 5   f 2      0.00021   0.00000  -0.00000   0.00000   0.00000   0.00000
 528  H 5   f 3      0.00009  -0.00000   0.00001  -0.00000   0.00000   0.00000
 529  H 5   f 4     -0.00013  -0.00000   0.00000  -0.00001  -0.00000   0.00000
 530  H 5   f 5      0.00005   0.00000   0.00000  -0.00000   0.00000   0.00000
 531  H 5   f 6     -0.00012   0.00000   0.00000  -0.00000  -0.00000  -0.00000
 532  H 5   f 7     -0.00015  -0.00000   0.00001  -0.00001  -0.00000  -0.00000
 533  H 5   f 1      0.00002   0.00001  -0.00001   0.00000   0.00000  -0.00001
 534  H 5   f 2      0.00097   0.00000   0.00004   0.00003   0.00001   0.00001
 535  H 5   f 3      0.00033  -0.00001   0.00000  -0.00001   0.00000  -0.00000
 536  H 5   f 4     -0.00062  -0.00000  -0.00002  -0.00001  -0.00000  -0.00000
 537  H 5   f 5      0.00020  -0.00001   0.00003  -0.00000   0.00000  -0.00000
 538  H 5   f 6     -0.00050   0.00001   0.00003  -0.00001  -0.00000  -0.00000
 539  H 5   f 7     -0.00067   0.00000   0.00002  -0.00000  -0.00000  -0.00001
 540  H 5   g 1      0.00005  -0.00000  -0.00000   0.00000   0.00000   0.00000
 541  H 5   g 2     -0.00000  -0.00000  -0.00001  -0.00000  -0.00000   0.00000
 542  H 5   g 3     -0.00006   0.00000  -0.00001   0.00000  -0.00000  -0.00000
 543  H 5   g 4      0.00004   0.00000  -0.00000   0.00000   0.00000   0.00000
 544  H 5   g 5      0.00007  -0.00000   0.00000  -0.00000   0.00000  -0.00000
 545  H 5   g 6      0.00003   0.00000   0.00000   0.00000   0.00000   0.00000
 546  H 5   g 7      0.00004  -0.00000  -0.00000  -0.00000   0.00000  -0.00000
 547  H 5   g 8      0.00010  -0.00000   0.00000   0.00000   0.00000   0.00000
 548  H 5   g 9      0.00003   0.00000  -0.00000   0.00000   0.00000  -0.00000
 549  H 6   s        0.00021  -0.00000  -0.00001   0.00000  -0.00000   0.00000
 550  H 6   s        0.00138   0.00001   0.00008  -0.00008   0.00003  -0.00001
 551  H 6   s       -0.00869   0.00001   0.00011  -0.00001  -0.00020  -0.00002
 552  H 6   s       -0.00210   0.00029  -0.00005  -0.00008  -0.00044   0.00006
 553  H 6   s       -0.00009  -0.00003  -0.00007   0.00002  -0.00000   0.00003
 554  H 6   px       0.00020  -0.00000  -0.00000   0.00001  -0.00000   0.00000
 555  H 6   py       0.00002   0.00000   0.00001   0.00000   0.00000   0.00000
 556  H 6   pz      -0.00007  -0.00000   0.00000  -0.00000   0.00000   0.00000
 557  H 6   px      -0.00017   0.00000   0.00003  -0.00004   0.00001  -0.00001
 558  H 6   py      -0.00010  -0.00000  -0.00005  -0.00001   0.00000   0.00000
 559  H 6   pz       0.00005   0.00000  -0.00001  -0.00000  -0.00000  -0.00000
 560  H 6   px      -0.00697   0.00002   0.00001   0.00012  -0.00012   0.00001
 561  H 6   py       0.00036  -0.00002   0.00024   0.00003  -0.00002  -0.00003
 562  H 6   pz       0.00256  -0.00003   0.00004   0.00006   0.00001   0.00003
 563  H 6   px      -0.00231   0.00014  -0.00006   0.00007  -0.00022   0.00004
 564  H 6   py       0.00025  -0.00004   0.00010   0.00002   0.00000   0.00001
 565  H 6   pz       0.00078   0.00003  -0.00003  -0.00001   0.00001   0.00002
 566  H 6   d 1     -0.00002   0.00000  -0.00001  -0.00000   0.00000   0.00000
 567  H 6   d 2     -0.00000   0.00000   0.00000   0.00000   0.00000   0.00000
 568  H 6   d 3     -0.00005   0.00000  -0.00000  -0.00000  -0.00000   0.00000
 569  H 6   d 4     -0.00012   0.00000  -0.00001  -0.00000  -0.00000  -0.00000
 570  H 6   d 5      0.00014   0.00000  -0.00000  -0.00000   0.00000  -0.00000
 571  H 6   d 1      0.00008  -0.00001   0.00004   0.00001  -0.00001  -0.00001
 572  H 6   d 2     -0.00002  -0.00000  -0.00001  -0.00000  -0.00000  -0.00000
 573  H 6   d 3      0.00079  -0.00000   0.00000   0.00001   0.00001  -0.00000
 574  H 6   d 4      0.00143  -0.00001   0.00002   0.00000   0.00001   0.00001
 575  H 6   d 5     -0.00191  -0.00000   0.00001   0.00001  -0.00001  -0.00000
 576  H 6   d 1      0.00026  -0.00002   0.00013   0.00003  -0.00001  -0.00000
 577  H 6   d 2      0.00005   0.00001   0.00002  -0.00001   0.00001   0.00002
 578  H 6   d 3      0.00106  -0.00000   0.00006  -0.00011   0.00005  -0.00001
 579  H 6   d 4      0.00159   0.00001   0.00001   0.00001  -0.00000   0.00002
 580  H 6   d 5     -0.00228   0.00004   0.00001   0.00011  -0.00007   0.00002
 581  H 6   f 1      0.00001  -0.00000   0.00001  -0.00000  -0.00000  -0.00000
 582  H 6   f 2     -0.00001  -0.00000  -0.00000   0.00000  -0.00000  -0.00000
 583  H 6   f 3      0.00001  -0.00000  -0.00000   0.00000  -0.00000   0.00000
 584  H 6   f 4     -0.00013   0.00000  -0.00000   0.00000  -0.00000  -0.00000
 585  H 6   f 5      0.00006   0.00000  -0.00000   0.00000  -0.00000  -0.00000
 586  H 6   f 6      0.00018  -0.00000   0.00000  -0.00000   0.00000   0.00000
 587  H 6   f 7     -0.00020  -0.00000  -0.00000  -0.00000  -0.00000  -0.00000
 588  H 6   f 1      0.00009  -0.00000   0.00002   0.00001  -0.00000  -0.00000
 589  H 6   f 2     -0.00001   0.00000   0.00001  -0.00001   0.00001   0.00000
 590  H 6   f 3     -0.00001   0.00000  -0.00001  -0.00001   0.00000   0.00000
 591  H 6   f 4     -0.00060  -0.00000  -0.00001  -0.00001  -0.00000  -0.00000
 592  H 6   f 5      0.00038  -0.00000   0.00002  -0.00003   0.00001  -0.00001
 593  H 6   f 6      0.00083   0.00000   0.00001  -0.00000   0.00000   0.00000
 594  H 6   f 7     -0.00094   0.00000   0.00002   0.00003  -0.00001   0.00001
 595  H 6   g 1      0.00002  -0.00000   0.00000   0.00000  -0.00000  -0.00000
 596  H 6   g 2     -0.00001   0.00000   0.00000  -0.00000   0.00000   0.00000
 597  H 6   g 3      0.00001   0.00000  -0.00000  -0.00000   0.00000   0.00000
 598  H 6   g 4     -0.00000  -0.00000   0.00000  -0.00000  -0.00000  -0.00000
 599  H 6   g 5      0.00000  -0.00000  -0.00000   0.00000  -0.00000   0.00000
 600  H 6   g 6     -0.00012  -0.00000  -0.00000  -0.00000  -0.00000  -0.00000
 601  H 6   g 7      0.00002   0.00000   0.00000  -0.00000   0.00000  -0.00000
 602  H 6   g 8      0.00012  -0.00000   0.00000  -0.00000   0.00000   0.00000
 603  H 6   g 9     -0.00012   0.00000   0.00000   0.00000  -0.00000   0.00000
 604  O 4   s        0.00010   0.00000  -0.97865   0.00006   0.00000   0.00007
 605  O 4   s       -0.00001   0.00000  -0.03117   0.00002   0.00001   0.00008
 606  O 4   s       -0.00002   0.00001  -0.08531   0.00003   0.00001   0.00012
 607  O 4   s        0.00019  -0.00003   0.01571  -0.00012  -0.00003  -0.00088
 608  O 4   s       -0.00087   0.00009   0.01678   0.00029  -0.00007   0.00425
 609  O 4   s       -0.00089   0.00009   0.00657   0.00129  -0.00014   0.00237
 610  O 4   px       0.00000  -0.00000   0.00079  -0.00000  -0.00000  -0.00000
 611  O 4   py      -0.00000   0.00000   0.00034   0.00000  -0.00000   0.00000
 612  O 4   pz      -0.00000   0.00000   0.00060   0.00000   0.00000  -0.00000
 613  O 4   px      -0.00002   0.00000   0.00042   0.00002   0.00000   0.00005
 614  O 4   py       0.00001  -0.00000   0.00011  -0.00003   0.00001   0.00000
 615  O 4   pz       0.00002  -0.00000   0.00048  -0.00002  -0.00001   0.00005
 616  O 4   px       0.00012  -0.00000  -0.00627  -0.00005   0.00000  -0.00035
 617  O 4   py       0.00013   0.00001  -0.00217  -0.00000  -0.00006  -0.00009
 618  O 4   pz      -0.00018  -0.00001  -0.00556   0.00009   0.00005  -0.00030
 619  O 4   px       0.00019   0.00002  -0.00171  -0.00044   0.00003  -0.00169
 620  O 4   py       0.00046  -0.00003  -0.00131  -0.00010  -0.00030  -0.00065
 621  O 4   pz       0.00017  -0.00003  -0.00058  -0.00028   0.00019  -0.00104
 622  O 4   px       0.00009   0.00002  -0.00095  -0.00026   0.00008  -0.00000
 623  O 4   py       0.00007   0.00004  -0.00061  -0.00038   0.00000  -0.00006
 624  O 4   pz       0.00004   0.00004   0.00035   0.00015   0.00004  -0.00011
 625  O 4   d 1      0.00000  -0.00000  -0.00016  -0.00000  -0.00000   0.00001
 626  O 4   d 2      0.00000  -0.00000   0.00019  -0.00000   0.00000  -0.00001
 627  O 4   d 3      0.00000  -0.00000   0.00001   0.00000  -0.00000  -0.00001
 628  O 4   d 4      0.00000  -0.00000  -0.00006  -0.00000  -0.00000   0.00001
 629  O 4   d 5      0.00000  -0.00000   0.00010   0.00000  -0.00000   0.00000
 630  O 4   d 1     -0.00000   0.00000   0.00028   0.00001  -0.00000  -0.00006
 631  O 4   d 2     -0.00002   0.00000  -0.00029   0.00000  -0.00000   0.00005
 632  O 4   d 3     -0.00001   0.00000  -0.00002  -0.00001   0.00000   0.00003
 633  O 4   d 4     -0.00000   0.00000   0.00013   0.00000   0.00000  -0.00001
 634  O 4   d 5     -0.00002   0.00000  -0.00017  -0.00000   0.00000   0.00000
 635  O 4   d 1     -0.00008  -0.00000   0.00178  -0.00004   0.00003   0.00035
 636  O 4   d 2      0.00006  -0.00001  -0.00306   0.00001   0.00002  -0.00033
 637  O 4   d 3      0.00018   0.00000   0.00003   0.00001  -0.00003  -0.00013
 638  O 4   d 4      0.00005  -0.00000   0.00045   0.00001  -0.00002  -0.00001
 639  O 4   d 5      0.00015  -0.00002  -0.00155   0.00002  -0.00002  -0.00011
 640  O 4   d 1     -0.00019   0.00002  -0.00015   0.00002   0.00010   0.00051
 641  O 4   d 2     -0.00010  -0.00003   0.00090  -0.00017   0.00002  -0.00068
 642  O 4   d 3     -0.00001   0.00000  -0.00002  -0.00014  -0.00004  -0.00007
 643  O 4   d 4     -0.00001  -0.00000  -0.00028   0.00022  -0.00005  -0.00049
 644  O 4   d 5     -0.00008  -0.00001   0.00037  -0.00008  -0.00001  -0.00071
 645  O 4   f 1      0.00000  -0.00000   0.00003  -0.00000  -0.00000   0.00001
 646  O 4   f 2      0.00000   0.00000  -0.00009   0.00001   0.00000   0.00000
 647  O 4   f 3     -0.00000  -0.00000  -0.00013  -0.00000   0.00000  -0.00000
 648  O 4   f 4      0.00001   0.00000   0.00003  -0.00000   0.00000  -0.00000
 649  O 4   f 5      0.00000  -0.00000  -0.00001   0.00001  -0.00000   0.00001
 650  O 4   f 6      0.00001   0.00000  -0.00005  -0.00000   0.00000  -0.00000
 651  O 4   f 7      0.00001  -0.00000  -0.00010   0.00000  -0.00000  -0.00001
 652  O 4   f 1      0.00000   0.00000  -0.00025   0.00001   0.00000  -0.00004
 653  O 4   f 2     -0.00001  -0.00000   0.00062  -0.00002  -0.00000  -0.00001
 654  O 4   f 3      0.00001   0.00000   0.00112   0.00001  -0.00000   0.00003
 655  O 4   f 4     -0.00003  -0.00000  -0.00026   0.00000  -0.00000   0.00001
 656  O 4   f 5     -0.00002   0.00000   0.00003  -0.00002   0.00000  -0.00001
 657  O 4   f 6     -0.00002  -0.00000   0.00033   0.00000  -0.00001   0.00001
 658  O 4   f 7     -0.00004   0.00000   0.00084  -0.00001   0.00000   0.00003
 659  O 4   f 1     -0.00003   0.00001   0.00014  -0.00005   0.00000  -0.00019
 660  O 4   f 2      0.00006   0.00000  -0.00030   0.00010  -0.00001   0.00011
 661  O 4   f 3     -0.00002   0.00001  -0.00053  -0.00001   0.00001   0.00032
 662  O 4   f 4      0.00001  -0.00000   0.00000   0.00005  -0.00002  -0.00001
 663  O 4   f 5     -0.00003  -0.00000  -0.00006   0.00003   0.00001   0.00026
 664  O 4   f 6      0.00005   0.00001  -0.00036  -0.00000   0.00000   0.00024
 665  O 4   f 7      0.00002   0.00001  -0.00037   0.00003   0.00002   0.00016
 666  O 4   g 1     -0.00000   0.00000  -0.00004  -0.00000  -0.00000  -0.00000
 667  O 4   g 2     -0.00000   0.00000   0.00000   0.00000  -0.00000  -0.00000
 668  O 4   g 3      0.00000  -0.00000  -0.00013  -0.00000   0.00000  -0.00000
 669  O 4   g 4     -0.00000   0.00000  -0.00005  -0.00000   0.00000   0.00000
 670  O 4   g 5      0.00000  -0.00000   0.00002  -0.00000   0.00000   0.00000
 671  O 4   g 6      0.00000   0.00000   0.00004  -0.00000  -0.00000   0.00001
 672  O 4   g 7      0.00000  -0.00000  -0.00004   0.00000   0.00000  -0.00000
 673  O 4   g 8      0.00000  -0.00000  -0.00002   0.00000  -0.00000  -0.00001
 674  O 4   g 9      0.00000   0.00000  -0.00007   0.00000   0.00000  -0.00000
 675  O 4   g 1      0.00002  -0.00000  -0.00008   0.00002  -0.00000   0.00002
 676  O 4   g 2     -0.00001   0.00000   0.00006  -0.00000   0.00000   0.00002
 677  O 4   g 3     -0.00001   0.00000   0.00003  -0.00000   0.00000  -0.00000
 678  O 4   g 4     -0.00001  -0.00000   0.00008   0.00001  -0.00000  -0.00001
 679  O 4   g 5      0.00000   0.00000  -0.00005  -0.00001   0.00000  -0.00001
 680  O 4   g 6      0.00001  -0.00000   0.00004   0.00000   0.00000  -0.00004
 681  O 4   g 7     -0.00001   0.00000  -0.00002  -0.00001   0.00000  -0.00004
 682  O 4   g 8     -0.00002   0.00000   0.00010  -0.00002   0.00000   0.00001
 683  O 4   g 9     -0.00001   0.00000   0.00000  -0.00000  -0.00000  -0.00001
 684  O 4   h 1     -0.00000   0.00000   0.00006  -0.00000   0.00000   0.00000
 685  O 4   h 2      0.00000   0.00000  -0.00004  -0.00000   0.00000   0.00000
 686  O 4   h 3      0.00000  -0.00000  -0.00001   0.00000  -0.00000  -0.00000
 687  O 4   h 4      0.00000  -0.00000   0.00000   0.00000  -0.00000  -0.00001
 688  O 4   h 5      0.00000  -0.00000  -0.00001  -0.00000   0.00000  -0.00000
 689  O 4   h 6     -0.00000   0.00000   0.00005   0.00000   0.00000   0.00000
 690  O 4   h 7     -0.00000   0.00000  -0.00002   0.00000  -0.00000  -0.00000
 691  O 4   h 8     -0.00000   0.00000   0.00005  -0.00000   0.00000   0.00000
 692  O 4   h 9      0.00000  -0.00000  -0.00001   0.00000  -0.00000   0.00000
 693  O 4   h10      0.00000  -0.00000  -0.00003   0.00000  -0.00000  -0.00000
 694  O 4   h11      0.00000  -0.00000  -0.00002   0.00000  -0.00000   0.00001
 695  H 7   s       -0.00000   0.00000   0.00026  -0.00000   0.00000   0.00002
 696  H 7   s       -0.00006  -0.00000   0.00135   0.00004  -0.00000  -0.00001
 697  H 7   s        0.00079  -0.00005  -0.01126  -0.00031  -0.00028  -0.00299
 698  H 7   s        0.00049   0.00003  -0.00516  -0.00129   0.00003  -0.00113
 699  H 7   s        0.00002   0.00001  -0.00028  -0.00001   0.00000   0.00002
 700  H 7   px      -0.00000  -0.00000   0.00014  -0.00000   0.00000  -0.00000
 701  H 7   py       0.00000   0.00000   0.00018  -0.00000   0.00000   0.00000
 702  H 7   pz      -0.00000  -0.00000  -0.00001   0.00001  -0.00000  -0.00001
 703  H 7   px       0.00001   0.00000  -0.00025   0.00003  -0.00000  -0.00000
 704  H 7   py      -0.00001  -0.00000  -0.00029   0.00002  -0.00001  -0.00001
 705  H 7   pz       0.00002   0.00000  -0.00001  -0.00004   0.00001   0.00003
 706  H 7   px       0.00029  -0.00003  -0.00525  -0.00002  -0.00007  -0.00066
 707  H 7   py       0.00030   0.00000  -0.00691  -0.00012  -0.00006  -0.00111
 708  H 7   pz      -0.00010  -0.00001   0.00056   0.00007  -0.00001   0.00003
 709  H 7   px       0.00014  -0.00001  -0.00214  -0.00033  -0.00004  -0.00047
 710  H 7   py       0.00024   0.00002  -0.00325  -0.00038   0.00001  -0.00057
 711  H 7   pz      -0.00006  -0.00003   0.00013   0.00012  -0.00002   0.00002
 712  H 7   d 1     -0.00000   0.00000   0.00011   0.00000   0.00000   0.00000
 713  H 7   d 2      0.00000   0.00000  -0.00003   0.00001   0.00000  -0.00000
 714  H 7   d 3      0.00000  -0.00000  -0.00005   0.00000  -0.00000  -0.00001
 715  H 7   d 4     -0.00000  -0.00000   0.00002  -0.00000  -0.00000  -0.00000
 716  H 7   d 5     -0.00000   0.00000  -0.00002  -0.00001   0.00000  -0.00001
 717  H 7   d 1      0.00007  -0.00000  -0.00227   0.00002  -0.00001  -0.00010
 718  H 7   d 2     -0.00001  -0.00000   0.00026  -0.00003  -0.00000   0.00003
 719  H 7   d 3     -0.00003   0.00000   0.00129  -0.00002   0.00001   0.00010
 720  H 7   d 4      0.00001   0.00000   0.00003   0.00001   0.00000   0.00001
 721  H 7   d 5      0.00002  -0.00000   0.00055   0.00003  -0.00000   0.00010
 722  H 7   d 1      0.00010  -0.00000  -0.00276  -0.00009  -0.00001  -0.00020
 723  H 7   d 2     -0.00005  -0.00001   0.00019   0.00014  -0.00001  -0.00002
 724  H 7   d 3     -0.00007  -0.00001   0.00170   0.00008  -0.00000   0.00016
 725  H 7   d 4     -0.00004  -0.00001   0.00023  -0.00002  -0.00001   0.00011
 726  H 7   d 5     -0.00002  -0.00002   0.00089  -0.00000  -0.00003   0.00015
[...]
 954  H 10  s        0.12824  -0.19485   0.04276   0.15059   0.11369
 955  H 10  s        0.02050  -0.03089  -0.07078   0.18525  -0.35045
 956  H 10  px       0.00051  -0.00136   0.00084   0.00038  -0.00061
 957  H 10  py      -0.00002   0.00010  -0.00001  -0.00016  -0.00020
 958  H 10  pz       0.00000  -0.00003  -0.00001   0.00010   0.00010
 959  H 10  px      -0.00124   0.00380  -0.00293  -0.00101   0.00045
 960  H 10  py      -0.00013  -0.00002  -0.00083   0.00075   0.00164
 961  H 10  pz       0.00009   0.00005  -0.00086   0.00011   0.00060
 962  H 10  px       0.03243  -0.03542   0.00443   0.01163   0.05068
 963  H 10  py       0.00180   0.00028   0.00090  -0.00082   0.01801
 964  H 10  pz      -0.00487   0.00862   0.00053  -0.00629   0.01324
 965  H 10  px       0.03452   0.01022  -0.01201  -0.01230   0.05866
 966  H 10  py       0.00881  -0.02674   0.02190   0.01443   0.05226
 967  H 10  pz      -0.01818   0.02914   0.01431  -0.04304  -0.00584
 968  H 10  d 1     -0.00003   0.00016   0.00004  -0.00033  -0.00065
 969  H 10  d 2      0.00005  -0.00006   0.00015  -0.00018   0.00002
 970  H 10  d 3     -0.00002   0.00016  -0.00005   0.00002   0.00018
 971  H 10  d 4      0.00015  -0.00045   0.00037   0.00017  -0.00054
 972  H 10  d 5     -0.00013  -0.00020   0.00025   0.00010  -0.00029
 973  H 10  d 1      0.00036  -0.00009  -0.00093   0.00152   0.00695
 974  H 10  d 2     -0.00022   0.00027  -0.00067   0.00070   0.00012
 975  H 10  d 3     -0.00108  -0.00058   0.00112  -0.00013  -0.00406
 976  H 10  d 4     -0.00129   0.00380  -0.00253  -0.00148   0.00529
 977  H 10  d 5      0.00250   0.00078  -0.00259  -0.00053   0.00663
 978  H 10  d 1      0.00314  -0.00535   0.01021  -0.00194   0.01508
 979  H 10  d 2     -0.00034   0.00264  -0.00161  -0.00192   0.00648
 980  H 10  d 3     -0.00748   0.01119  -0.00960   0.00073   0.00033
 981  H 10  d 4     -0.00616   0.00650   0.01263  -0.01362   0.00054
 982  H 10  d 5      0.01105  -0.01853   0.01869   0.00003  -0.00492
 983  H 10  f 1     -0.00001   0.00011  -0.00015  -0.00001   0.00028
 984  H 10  f 2      0.00004  -0.00019   0.00018  -0.00001  -0.00018
 985  H 10  f 3      0.00004  -0.00011   0.00008   0.00004  -0.00006
 986  H 10  f 4     -0.00003   0.00002  -0.00000  -0.00002  -0.00011
 987  H 10  f 5     -0.00017  -0.00006   0.00028  -0.00002  -0.00081
 988  H 10  f 6     -0.00000  -0.00001  -0.00004   0.00005   0.00012
 989  H 10  f 7      0.00017   0.00005  -0.00023  -0.00003   0.00090
 990  H 10  f 1      0.00077  -0.00087   0.00132   0.00045   0.00566
 991  H 10  f 2     -0.00032   0.00155  -0.00136  -0.00014   0.00162
 992  H 10  f 3     -0.00033   0.00051  -0.00040  -0.00033  -0.00183
 993  H 10  f 4      0.00137  -0.00265   0.00020   0.00216  -0.00210
 994  H 10  f 5     -0.00123   0.00173  -0.00225   0.00058   0.00161
 995  H 10  f 6     -0.00162   0.00358  -0.00042  -0.00285   0.00344
 996  H 10  f 7      0.00155  -0.00167   0.00198  -0.00065  -0.00199
 997  H 10  g 1      0.00006  -0.00004   0.00009   0.00004   0.00049
 998  H 10  g 2     -0.00001   0.00006  -0.00003  -0.00002  -0.00001
 999  H 10  g 3     -0.00002  -0.00002   0.00000  -0.00002  -0.00026
1000  H 10  g 4      0.00001  -0.00002   0.00001   0.00001   0.00002
1001  H 10  g 5      0.00008  -0.00007   0.00006  -0.00002   0.00004
1002  H 10  g 6      0.00014  -0.00029   0.00000   0.00024  -0.00022
1003  H 10  g 7     -0.00011   0.00011  -0.00012   0.00004   0.00002
1004  H 10  g 8     -0.00014   0.00031  -0.00006  -0.00020   0.00033
1005  H 10  g 9      0.00012  -0.00010   0.00012  -0.00007  -0.00003
1006  O 6   s       -0.00122  -0.00154  -0.00094  -0.00131   0.00012
1007  O 6   s        0.05163   0.05795   0.02622   0.04585  -0.00541
1008  O 6   s        0.00217   0.00228   0.00045   0.00120  -0.00039
1009  O 6   s        0.05035   0.05417   0.02029   0.04142  -0.00834
1010  O 6   s        0.08733   0.09192   0.09398   0.12727   0.04088
1011  O 6   s        0.36596   0.49073   0.29007   0.58068   0.04339
1012  O 6   px       0.01711   0.01446   0.01788   0.00702   0.00686
1013  O 6   py       0.00260   0.01284   0.00611   0.00978  -0.00608
1014  O 6   pz      -0.02202  -0.02058   0.00668  -0.01432   0.01081
1015  O 6   px       0.02684   0.02220   0.02670   0.01013   0.00974
1016  O 6   py       0.00220   0.01992   0.00956   0.01507  -0.01035
1017  O 6   pz      -0.03643  -0.03313   0.01170  -0.02150   0.01720
1018  O 6   px       0.04397   0.03592   0.05716   0.02057   0.02910
1019  O 6   py       0.00830   0.03059   0.01709   0.02701  -0.01152
1020  O 6   pz      -0.04787  -0.04496   0.01807  -0.04064   0.02816
1021  O 6   px       0.12707   0.13892   0.10852   0.09154   0.03244
1022  O 6   py       0.00240   0.03927   0.04929   0.06583   0.00610
1023  O 6   pz      -0.08865  -0.10830  -0.02438  -0.08566   0.04093
1024  O 6   px      -0.02441  -0.03062   0.10818   0.03197   0.12328
1025  O 6   py       0.04815   0.04787   0.01095   0.05184  -0.01689
1026  O 6   pz      -0.06229  -0.07069   0.09253  -0.11138   0.08914
1027  O 6   d 1      0.00004   0.00012   0.00005   0.00005  -0.00005
1028  O 6   d 2     -0.00003  -0.00016  -0.00016  -0.00006   0.00002
1029  O 6   d 3      0.00014   0.00015   0.00011   0.00002   0.00000
1030  O 6   d 4     -0.00007  -0.00001  -0.00003   0.00011  -0.00001
1031  O 6   d 5      0.00035   0.00040   0.00008   0.00013  -0.00013
1032  O 6   d 1      0.00009  -0.00031  -0.00013  -0.00004   0.00012
1033  O 6   d 2     -0.00014   0.00080   0.00105   0.00071  -0.00016
1034  O 6   d 3     -0.00093  -0.00145  -0.00046  -0.00085   0.00059
1035  O 6   d 4     -0.00093  -0.00154  -0.00059  -0.00201   0.00016
1036  O 6   d 5     -0.00175  -0.00252  -0.00095  -0.00112   0.00064
1037  O 6   d 1      0.00222   0.00244   0.00360   0.00121   0.00208
1038  O 6   d 2      0.00047  -0.00336  -0.00461  -0.00515   0.00074
1039  O 6   d 3      0.00284   0.00430  -0.00102   0.00482  -0.00525
1040  O 6   d 4      0.00129   0.00340   0.00259   0.00848   0.00180
1041  O 6   d 5      0.01115   0.01279   0.00888   0.00680   0.00195
1042  O 6   d 1      0.01654   0.00536   0.00751   0.00053   0.00757
1043  O 6   d 2     -0.00980  -0.01755  -0.01267  -0.02355   0.00299
1044  O 6   d 3      0.01699   0.02240  -0.01078   0.02012  -0.02411
1045  O 6   d 4      0.00082   0.00192   0.00084   0.02107   0.00902
1046  O 6   d 5      0.01791   0.02487   0.02397   0.02166   0.01071
1047  O 6   f 1      0.00011   0.00006  -0.00005   0.00001  -0.00005
1048  O 6   f 2     -0.00008  -0.00007  -0.00009  -0.00008  -0.00006
1049  O 6   f 3      0.00007   0.00003  -0.00002  -0.00004   0.00002
1050  O 6   f 4      0.00012   0.00019   0.00009   0.00015  -0.00008
1051  O 6   f 5      0.00001   0.00001   0.00017   0.00001   0.00013
1052  O 6   f 6     -0.00011  -0.00017  -0.00002  -0.00016   0.00009
1053  O 6   f 7     -0.00008  -0.00011  -0.00004  -0.00008  -0.00001
1054  O 6   f 1     -0.00027  -0.00005   0.00069   0.00016   0.00050
1055  O 6   f 2      0.00019   0.00024   0.00048   0.00046   0.00034
1056  O 6   f 3     -0.00028  -0.00002   0.00008   0.00053  -0.00028
1057  O 6   f 4     -0.00094  -0.00109  -0.00066  -0.00108   0.00032
1058  O 6   f 5     -0.00028  -0.00027  -0.00103  -0.00034  -0.00077
1059  O 6   f 6      0.00048   0.00085   0.00058   0.00093  -0.00018
1060  O 6   f 7      0.00077   0.00080   0.00077   0.00064   0.00043
1061  O 6   f 1      0.00538   0.00346   0.00430   0.00176   0.00307
1062  O 6   f 2     -0.00176  -0.00080   0.00038   0.00371   0.00224
1063  O 6   f 3      0.00569   0.01037   0.00401   0.01072  -0.00339
1064  O 6   f 4     -0.01477  -0.01772  -0.00255  -0.01254   0.00590
1065  O 6   f 5     -0.00118  -0.00358  -0.00825  -0.00634  -0.00681
1066  O 6   f 6      0.00514   0.00764   0.00252   0.00898  -0.00133
1067  O 6   f 7      0.00650   0.01056   0.00797   0.00753  -0.00004
1068  O 6   g 1     -0.00001   0.00002   0.00002   0.00001  -0.00000
1069  O 6   g 2      0.00002   0.00001   0.00006  -0.00001   0.00002
1070  O 6   g 3     -0.00007  -0.00007   0.00004  -0.00002   0.00007
1071  O 6   g 4      0.00006   0.00009   0.00002   0.00004  -0.00001
1072  O 6   g 5     -0.00007  -0.00008  -0.00001   0.00003   0.00002
1073  O 6   g 6      0.00007   0.00008  -0.00011   0.00002  -0.00014
1074  O 6   g 7     -0.00002   0.00002   0.00002  -0.00000   0.00001
1075  O 6   g 8     -0.00007  -0.00007   0.00007  -0.00006   0.00006
1076  O 6   g 9     -0.00001  -0.00005   0.00002  -0.00003   0.00006
1077  O 6   g 1      0.00072   0.00063   0.00100   0.00047   0.00059
1078  O 6   g 2      0.00029   0.00055   0.00014   0.00076  -0.00005
1079  O 6   g 3      0.00053   0.00046  -0.00083  -0.00023  -0.00103
1080  O 6   g 4     -0.00146  -0.00221  -0.00085  -0.00198   0.00053
1081  O 6   g 5      0.00206   0.00227   0.00088   0.00074  -0.00041
1082  O 6   g 6     -0.00157  -0.00173   0.00025  -0.00069   0.00121
1083  O 6   g 7     -0.00064  -0.00136  -0.00141  -0.00098  -0.00022
1084  O 6   g 8      0.00131   0.00137  -0.00005   0.00098  -0.00055
1085  O 6   g 9      0.00104   0.00161   0.00082   0.00101  -0.00037
1086  O 6   h 1      0.00013   0.00015   0.00019   0.00009   0.00007
1087  O 6   h 2      0.00010   0.00012   0.00004   0.00010  -0.00001
1088  O 6   h 3     -0.00004  -0.00007  -0.00012  -0.00003  -0.00005
1089  O 6   h 4     -0.00014  -0.00012   0.00004   0.00001   0.00010
1090  O 6   h 5      0.00027   0.00035   0.00011   0.00025  -0.00009
1091  O 6   h 6     -0.00013  -0.00009   0.00007   0.00004   0.00009
1092  O 6   h 7      0.00008   0.00009   0.00007  -0.00009  -0.00004
1093  O 6   h 8     -0.00009  -0.00003  -0.00000   0.00002  -0.00004
1094  O 6   h 9     -0.00011  -0.00011  -0.00009   0.00003   0.00000
1095  O 6   h10      0.00016   0.00016   0.00002   0.00013  -0.00004
1096  O 6   h11      0.00014   0.00020   0.00008   0.00011  -0.00007
1097  H 11  s       -0.00250  -0.00382  -0.00341  -0.00332  -0.00045
1098  H 11  s       -0.00376  -0.00655   0.00060  -0.00417   0.00413
1099  H 11  s       -0.12122  -0.15863  -0.15205  -0.12824  -0.04655
1100  H 11  s        0.00970   0.03011  -0.03618  -0.12787  -0.13901
1101  H 11  s       -0.16876  -0.30754  -0.66243  -0.14759  -0.24005
1102  H 11  px      -0.00131  -0.00154  -0.00162  -0.00100  -0.00036
1103  H 11  py      -0.00034  -0.00056  -0.00059  -0.00035  -0.00003
1104  H 11  pz      -0.00028  -0.00034  -0.00035  -0.00022  -0.00011
1105  H 11  px       0.00159   0.00253   0.00141   0.00115  -0.00068
1106  H 11  py       0.00046   0.00137   0.00134   0.00092  -0.00032
1107  H 11  pz      -0.00062  -0.00052   0.00017  -0.00039   0.00038
1108  H 11  px       0.01534   0.01786   0.01749   0.02104   0.01430
1109  H 11  py       0.00653   0.01038   0.00314   0.00905  -0.00159
1110  H 11  pz       0.00020   0.00094   0.01244  -0.00339   0.00743
1111  H 11  px      -0.01044  -0.01735   0.00784   0.04069   0.04678
1112  H 11  py       0.00126   0.02005   0.02803   0.02762   0.01120
1113  H 11  pz       0.00417   0.00716   0.01617   0.01143   0.01877
1114  H 11  d 1      0.00023   0.00021   0.00012   0.00021   0.00005
1115  H 11  d 2     -0.00018  -0.00014  -0.00001  -0.00014  -0.00014
1116  H 11  d 3     -0.00007  -0.00001  -0.00005  -0.00007  -0.00011
1117  H 11  d 4      0.00006  -0.00002   0.00024  -0.00015   0.00023
1118  H 11  d 5      0.00003   0.00006   0.00042   0.00013   0.00026
1119  H 11  d 1     -0.00301  -0.00406  -0.00201  -0.00309   0.00027
1120  H 11  d 2      0.00073   0.00030  -0.00046   0.00051   0.00046
1121  H 11  d 3      0.00231   0.00256   0.00151   0.00240   0.00060
1122  H 11  d 4      0.00006   0.00008  -0.00347   0.00112  -0.00265
1123  H 11  d 5     -0.00266  -0.00323  -0.00454  -0.00280  -0.00236
1124  H 11  d 1      0.00057  -0.00565  -0.00497  -0.00608   0.00060
1125  H 11  d 2     -0.00001  -0.00091  -0.00428   0.00000  -0.00410
1126  H 11  d 3     -0.00358  -0.00548   0.00042   0.00031   0.00528
1127  H 11  d 4      0.00544   0.00599  -0.00596   0.00422  -0.00862
1128  H 11  d 5      0.00530   0.01209   0.00350   0.00194  -0.00909
1129  H 11  f 1      0.00038   0.00044   0.00022   0.00027   0.00001
1130  H 11  f 2      0.00019   0.00018   0.00002   0.00012  -0.00003
1131  H 11  f 3     -0.00012  -0.00016  -0.00010  -0.00008   0.00000
1132  H 11  f 4     -0.00007  -0.00016  -0.00018  -0.00013   0.00002
1133  H 11  f 5     -0.00036  -0.00045  -0.00013  -0.00039   0.00005
1134  H 11  f 6      0.00021   0.00029   0.00032   0.00014   0.00012
1135  H 11  f 7      0.00039   0.00054   0.00045   0.00036   0.00009
1136  H 11  f 1      0.00023   0.00094   0.00095   0.00127  -0.00006
1137  H 11  f 2     -0.00095  -0.00020   0.00149  -0.00051   0.00088
1138  H 11  f 3     -0.00040  -0.00053   0.00019  -0.00080   0.00030
1139  H 11  f 4      0.00101   0.00158  -0.00129   0.00166  -0.00218
1140  H 11  f 5      0.00038   0.00077   0.00013  -0.00034  -0.00062
1141  H 11  f 6     -0.00178  -0.00266   0.00079  -0.00215   0.00211
1142  H 11  f 7     -0.00208  -0.00379  -0.00090  -0.00146   0.00197
1143  H 11  g 1     -0.00005  -0.00008  -0.00011  -0.00012  -0.00003
1144  H 11  g 2     -0.00001  -0.00006  -0.00014   0.00001  -0.00005
1145  H 11  g 3      0.00011   0.00012  -0.00002   0.00012  -0.00006
1146  H 11  g 4      0.00000   0.00000   0.00002   0.00000   0.00004
1147  H 11  g 5     -0.00007  -0.00008   0.00004  -0.00013   0.00005
1148  H 11  g 6     -0.00008  -0.00011   0.00017  -0.00013   0.00019
1149  H 11  g 7      0.00003   0.00004  -0.00001   0.00011   0.00000
1150  H 11  g 8      0.00011   0.00019  -0.00007   0.00015  -0.00017
1151  H 11  g 9      0.00014   0.00023   0.00001   0.00008  -0.00015
1152  H 12  s       -0.00361  -0.00537  -0.00108  -0.00514   0.00207
1153  H 12  s       -0.00612  -0.00902  -0.00121  -0.00486   0.00233
1154  H 12  s       -0.12064  -0.18227  -0.06112  -0.17784   0.06340
1155  H 12  s        0.04746   0.06144   0.01609  -0.07743  -0.02928
1156  H 12  s       -0.55577  -0.67784   0.18806  -0.53331   0.47227
1157  H 12  px       0.00013  -0.00003  -0.00007  -0.00009   0.00009
1158  H 12  py      -0.00084  -0.00082   0.00011  -0.00051   0.00031
1159  H 12  pz       0.00164   0.00211   0.00025   0.00172  -0.00088
1160  H 12  px       0.00050   0.00135   0.00121   0.00098  -0.00068
1161  H 12  py       0.00155   0.00145  -0.00061   0.00031  -0.00038
1162  H 12  pz      -0.00164  -0.00312  -0.00100  -0.00203   0.00142
1163  H 12  px      -0.00646  -0.00874   0.00122   0.00047   0.01022
1164  H 12  py       0.00247   0.00589   0.00588   0.00646  -0.00233
1165  H 12  pz       0.00203  -0.00579  -0.01563  -0.01929  -0.00232
1166  H 12  px      -0.01727  -0.00536  -0.00148   0.02721   0.00734
1167  H 12  py       0.01346   0.00258  -0.02595  -0.00273  -0.01017
1168  H 12  pz       0.03342   0.03130  -0.01613  -0.02523  -0.01485
1169  H 12  d 1      0.00008  -0.00002   0.00005  -0.00004   0.00009
1170  H 12  d 2     -0.00032  -0.00018   0.00011  -0.00015   0.00010
1171  H 12  d 3      0.00002   0.00013   0.00008   0.00033  -0.00011
1172  H 12  d 4      0.00028   0.00020  -0.00016  -0.00003  -0.00023
1173  H 12  d 5     -0.00011  -0.00012  -0.00013   0.00008   0.00006
1174  H 12  d 1     -0.00015   0.00023  -0.00064   0.00010  -0.00077
1175  H 12  d 2      0.00274   0.00326   0.00097   0.00274  -0.00134
1176  H 12  d 3     -0.00110  -0.00317  -0.00212  -0.00469   0.00137
1177  H 12  d 4     -0.00151  -0.00132   0.00187   0.00020   0.00237
1178  H 12  d 5      0.00079   0.00098   0.00078  -0.00003  -0.00043
1179  H 12  d 1      0.00291   0.00169  -0.00162  -0.00365  -0.00408
1180  H 12  d 2     -0.00212  -0.00453  -0.00409  -0.00280  -0.00103
1181  H 12  d 3      0.01642   0.01885  -0.00023   0.00049  -0.00884
1182  H 12  d 4     -0.00530  -0.00426  -0.00127   0.00803   0.00606
1183  H 12  d 5      0.00001  -0.00139  -0.00564   0.00033  -0.00109
1184  H 12  f 1     -0.00004  -0.00002  -0.00005   0.00000  -0.00001
1185  H 12  f 2      0.00008   0.00008   0.00002   0.00008  -0.00002
1186  H 12  f 3      0.00040   0.00069   0.00041   0.00056  -0.00022
1187  H 12  f 4     -0.00038  -0.00060  -0.00027  -0.00045   0.00018
1188  H 12  f 5     -0.00007  -0.00019   0.00007  -0.00020   0.00020
1189  H 12  f 6     -0.00000   0.00005   0.00019   0.00007   0.00006
1190  H 12  f 7     -0.00003  -0.00008  -0.00003  -0.00005   0.00005
1191  H 12  f 1     -0.00016  -0.00020   0.00024  -0.00017   0.00005
1192  H 12  f 2      0.00053   0.00048  -0.00088  -0.00118  -0.00157
1193  H 12  f 3     -0.00105  -0.00243  -0.00170  -0.00114   0.00027
1194  H 12  f 4      0.00445   0.00458   0.00018  -0.00006  -0.00168
1195  H 12  f 5     -0.00120  -0.00036   0.00088   0.00240   0.00137
1196  H 12  f 6      0.00081   0.00046  -0.00127   0.00008  -0.00082
1197  H 12  f 7      0.00025   0.00040  -0.00025  -0.00003  -0.00066
1198  H 12  g 1      0.00001   0.00001   0.00003   0.00001   0.00001
1199  H 12  g 2     -0.00004  -0.00003  -0.00001  -0.00001  -0.00001
1200  H 12  g 3      0.00007   0.00006  -0.00006  -0.00013  -0.00014
1201  H 12  g 4     -0.00003  -0.00007  -0.00002   0.00007  -0.00001
1202  H 12  g 5      0.00028   0.00023  -0.00005  -0.00010  -0.00011
1203  H 12  g 6     -0.00009  -0.00006   0.00009   0.00014   0.00015
1204  H 12  g 7      0.00007   0.00006  -0.00006   0.00005  -0.00006
1205  H 12  g 8      0.00005   0.00004  -0.00005  -0.00003  -0.00007
1206  H 12  g 9      0.00000   0.00002   0.00000   0.00001  -0.00002

          Ground-State Mulliken Net Atomic Charges

     Atom                 Charge (a.u.)
  ----------------------------------------
      1 O                    -0.731319
      2 H                     0.314145
      3 H                     0.391390
      4 O                    -0.642273
      5 H                     0.346990
      6 H                     0.287659
      7 O                    -0.653965
      8 H                     0.370052
      9 H                     0.321602
     10 O                    -0.750150
     11 H                     0.333895
     12 H                     0.397286
     13 O                    -0.690396
     14 H                     0.275901
     15 H                     0.402945
     16 O                    -0.609748
     17 H                     0.330984
     18 H                     0.305003
  ----------------------------------------
  Sum of atomic charges =     0.000000

 -----------------------------------------------------------------
                    Cartesian Multipole Moments
 -----------------------------------------------------------------
    Charge (ESU x 10^10)
                -0.0000
    Dipole Moment (Debye)
         X      -3.2049      Y      -1.6011      Z      -1.3992
       Tot       3.8461
    Quadrupole Moments (Debye-Ang)
        XX     -46.2109     XY       4.9576     YY     -33.1081
        XZ       6.3374     YZ       3.4634     ZZ     -44.7090
    Octopole Moments (Debye-Ang^2)
       XXX       1.5449    XXY       9.5484    XYY      -0.7680
       YYY     -37.6279    XXZ     -32.0714    XYZ      23.5491
       YYZ      -9.5704    XZZ      14.2902    YZZ      -0.8199
       ZZZ      12.7961
    Hexadecapole Moments (Debye-Ang^3)
      XXXX   -1029.9003   XXXY     237.7313   XXYY    -231.6673
      XYYY     172.3894   YYYY    -733.1058   XXXZ     147.2845
      XXYZ     -30.9237   XYYZ      32.4539   YYYZ    -100.3942
      XXZZ    -244.7582   XYZZ      85.3880   YYZZ    -198.4526
      XZZZ      78.0041   YZZZ    -146.8008   ZZZZ    -502.0489
 -----------------------------------------------------------------
 Total job time:  3836.94s(wall), 120852.44s(cpu) 
 Tue Jan 14 17:22:18 2025

        *************************************************************
        *                                                           *
        *  Thank you very much for using Q-Chem.  Have a nice day.  *
        *                                                           *
        *************************************************************


