                  Welcome to Q-Chem
     A Quantum Leap Into The Future Of Chemistry


 Q-Chem 6.2 (devel), Q-Chem, Inc., Pleasanton, CA (2024)

 E. Epifanovsky,  A. T. B. Gilbert,  Xintian Feng,  Joonho Lee,  Yuezhi Mao,  
 N. Mardirossian,  P. Pokhilko,  A. White,  M. Wormit,  M. P. Coons,  
 A. L. Dempwolff,  Zhengting Gan,  D. Hait,  P. R. Horn,  L. D. Jacobson,  
 I. Kaliman,  J. Kussmann,  A. W. Lange,  Ka Un Lao,  D. S. Levine,  Jie Liu,  
 S. C. McKenzie,  A. F. Morrison,  K. D. Nanda,  F. Plasser,  D. R. Rehn,  
 M. L. Vidal,  Zhi-Qiang You,  Ying Zhu,  Huseyin Aksu,  B. Alam,  
 B. Albrecht,  A. Aldossary,  E. Alguire,  J. H. Andersen,  
 J. E. Arias-Martinez,  V. Athavale,  D. Barton,  K. Begam,  A. Behn,  
 N. Bellonzi,  Y. A. Bernard,  E. J. Berquist,  H. Burton,  A. Carreras,  
 K. Carter-Fenk,  Mathew Chow,  Romit Chakraborty,  Chandrima Chakravarty,  
 Junhan Chen,  A. D. Chien,  K. D. Closser,  V. Cofer-Shabica,  L. Cunha,  
 S. Dasgupta,  Jia Deng,  Joseph Dickinson,  M. de Wergifosse,  
 M. Diedenhofen,  Hainam Do,  Wenjie Dou,  S. Ehlert,  Po-Tung Fang,  
 S. Fatehi,  Qingguo Feng,  Jonathan Fetherolf,  T. Friedhoff,  
 Thomas Froitzheim,  Sarai Folkestad,  B. Ganoe,  J. Gayvert,  Qinghui Ge,  
 G. Gidofalvi,  M. Gimferrer,  M. Goldey,  Montgomery Gray,  J. Gomes,  
 C. Gonzalez-Espinoza,  S. Gulania,  A. Gunina,  J. A. Gyamfi,  
 M. W. D. Hanson-Heine,  P. H. P. Harbach,  A. W. Hauser,  M. F. Herbst,  
 M. Hernandez Vera,  M. Hodecker,  Z. C. Holden,  S. Houck,  Xunkun Huang,  
 Kerwin Hui,  B. C. Huynh,  K. Ikeda,  M. Ivanov,  Nayanthara K. Jayadev,  
 Hyunjun Ji,  Zuxin Jin,  Hanjie Jiang,  Subrata Jana,  B. Kaduk,  
 S. Kaehler,  R. Kang,  K. Khistyaev,  Jaehoon Kim,  Yongbin Kim,  
 P. Klunzinger,  Z. Koczor-Benda,  Joong Hoon Koh,  D. Kosenkov,  
 Saikiran Kotaru,  L. Koulias,  T. Kowalczyk,  C. M. Krauter,  K. Kue,  
 A. Kunitsa,  T. Kus,  A. Landau,  K. V. Lawler,  D. Lefrancois,  S. Lehtola,  
 Rain Li,  Shaozhi Li,  Tao E. Li,  Yi-Pei Li,  Jiashu Liang,  M. Liebenthal,  
 Hung-Hsuan Lin,  You-Sheng Lin,  Fenglai Liu,  Kuan-Yu Liu,  Xiao Liu,  
 M. Loipersberger,  A. Luenser,  C. Malbon,  Aniket Mandal,  Manisha,  
 A. Manjanath,  P. Manohar,  E. Mansoor,  S. F. Manzer,  Shan-Ping Mao,  
 A. V. Marenich,  T. Markovich,  S. Mason,  F. Matz,  S. A. Maurer,  
 Samuel May,  Alexandra McIsaac,  P. F. McLaughlin,  M. F. S. J. Menger,  
 J.-M. Mewes,  S. A. Mewes,  P. Morgante,  Mohammad Mostafanejad,  
 Madhubani Mukherjee,  J. W. Mullinax,  Quyen Nguyen,  Avik Kumar Ojha,  
 K. J. Oosterbaan,  Eno Paenurk,  Xiaoliang Pan,  G. Paran,  V. Parravicini,  
 Alexander C. Paul,  Suranjan K. Paul,  F. Pavosevic,  Zheng Pei,  S. Prager,  
 E. I. Proynov,  E. Ramos,  B. Rana,  A. E. Rask,  A. Rettig,  R. M. Richard,  
 F. Rob,  E. Rossomme,  T. Scheele,  M. Scheurer,  M. Schneider,  
 P. E. Schneider,  Tim K. Schramm,  N. Sergueev,  S. M. Sharada,  
 Hengyuan Shen,  W. Skomorowski,  D. W. Small,  C. J. Stein,  
 Alistair J. Sterling,  Yingli Su,  Yu-Chuan Su,  E. J. Sundstrom,  
 J. Talbot,  Zhen Tao,  J. Thirman,  Hung-Yi Tsai,  T. Tsuchimochi,  
 N. M. Tubman,  C. Utku,  S. P. Veccham,  O. Vydrov,  Rahel Weiss,  
 J. Wenzel,  Jonathan Wong,  J. Witte,  H. Wu,  Yanze Wu,  A. Yamada,  
 Chou-Hsun Yang,  Kun Yao,  S. Yeganeh,  S. R. Yost,  Qi Yu,  A. Zech,  
 F. Zeller,  Chongxiao Zhao,  Igor Ying Zhang,  Xing Zhang,  Yu Zhang,  
 D. Zuev,  A. Aspuru-Guzik,  A. T. Bell,  N. A. Besley,  K. B. Bravaya,  
 B. R. Brooks,  D. Casanova,  Jeng-Da Chai,  Hsing-Ta Chen,  S. Coriani,  
 C. J. Cramer,  A. E. DePrince, III,  R. A. DiStasio Jr.,  A. Dreuw,  
 B. D. Dunietz,  T. R. Furlani,  W. A. Goddard III,  S. Grimme,  
 S. Hammes-Schiffer,  T. Head-Gordon,  W. J. Hehre,  Chao-Ping Hsu,  
 T.-C. Jagau,  Yousung Jung,  A. Klamt,  Jing Kong,  D. S. Lambrecht,  
 Xiangyuan Li,  WanZhen Liang,  N. J. Mayhall,  C. W. McCurdy,  J. B. Neaton,  
 T. Neudecker,  C. Ochsenfeld,  J. A. Parkhill,  R. Peverati,  
 V. A. Rassolov,  Haisheng Ren,  Yihan Shao,  L. V. Slipchenko,  
 R. P. Steele,  J. E. Subotnik,  A. J. W. Thom,  A. Tkatchenko,  
 D. G. Truhlar,  T. Van Voorhis,  Fan Wang,  T. A. Wesolowski,  K. B. Whaley,  
 H. L. Woodcock III,  P. M. Zimmerman,  S. Faraji,  P. M. W. Gill,  
 M. Head-Gordon,  J. M. Herbert,  A. I. Krylov

 Contributors to earlier versions of Q-Chem not listed above: 
 R. D. Adamson,  B. Austin,  R. Baer,  J. Baker,  G. J. O. Beran,  
 K. Brandhorst,  S. T. Brown,  E. F. C. Byrd,  Arup K. Chakraborty,  
 G. K. L. Chan,  Chun-Min Chang,  Yunqing Chen,  C.-L. Cheng,  
 Siu Hung Chien,  D. M. Chipman,  D. L. Crittenden,  H. Dachsel,  
 R. J. Doerksen,  A. D. Dutoi,  R. G. Edgar,  J. Fosso-Tande,  
 L. Fusti-Molnar,  D. Ghosh,  A. Ghysels,  A. Golubeva-Zadorozhnaya,  
 J. Gonthier,  M. S. Gordon,  S. R. Gwaltney,  G. Hawkins,  J. E. Herr,  
 A. Heyden,  S. Hirata,  E. G. Hohenstein,  G. Kedziora,  F. J. Keil,  
 C. Kelley,  Jihan Kim,  R. A. King,  R. Z. Khaliullin,  P. P. Korambath,  
 W. Kurlancheek,  A. Laurent,  A. M. Lee,  M. S. Lee,  S. V. Levchenko,  
 Ching Yeh Lin,  D. Liotard,  E. Livshits,  R. C. Lochan,  I. Lotan,  
 L. A. Martinez-Martinez,  P. E. Maslen,  N. Nair,  D. P. O'Neill,  
 D. Neuhauser,  E. Neuscamman,  C. M. Oana,  R. Olivares-Amaya,  R. Olson,  
 T. M. Perrine,  B. Peters,  P. A. Pieniazek,  A. Prociuk,  Y. M. Rhee,  
 J. Ritchie,  M. A. Rohrdanz,  E. Rosta,  N. J. Russ,  H. F. Schaefer III,  
 M. W. Schmidt,  N. E. Schultz,  S. Sharma,  N. Shenvi,  C. D. Sherrill,  
 A. C. Simmonett,  A. Sodt,  T. Stein,  D. Stuck,  K. S. Thanthiriwatte,  
 V. Vanovschi,  L. Vogt,  Tao Wang,  A. Warshel,  M. A. Watson,  
 C. F. Williams,  Q. Wu,  X. Xu,  Jun Yang,  W. Zhang,  Yan Zhao

   Please cite Q-Chem as follows:
  "Software for the frontiers of quantum chemistry:
   An overview of developments in the Q-Chem 5 package"
   J. Chem. Phys. 155, 084801 (2021)
   https://doi.org/10.1063/5.0055522 (open access)

 Q-Chem 6.2.2 for Intel X86 EM64T Linux

 Parts of Q-Chem use Armadillo 9.900.5 (Nocturnal Misbehaviour).
 http://arma.sourceforge.net/

 Q-Chem begins on Tue Jan 21 15:14:45 2025  

 Host: compute-0-15.local
0

     Scratch files written to /scratch/keith/A1D2_2//
 Processing $rem in /home/keith/software/qchem/qchem_622/config/preferences:
 Processing $rem in /home/keith/.qchemrc:

 Checking the input file for inconsistencies... 	...done.

--------------------------------------------------------------
User input:
--------------------------------------------------------------
$molecule
read
$end

$rem
method                    b3lyp 
basis                     cc-pv5z 
mem_total                 48000
mem_static                8000
thresh                    12
scf_convergence           8
xc_grid                   000075000302
max_scf_cycles            2000
symmetry                  false
sym_ignore                true
scf_guess                 read
skip_scfman               true
cis_n_roots               150
cis_triplets              false
rpa                       false 
trnss                     true
trtype                    3
n_sol                     1
nto_pairs                 2
gui                       2
print_orbitals            true
state_analysis            true
$end

$solute 
4 
$end
--------------------------------------------------------------
 ----------------------------------------------------------------
             Standard Nuclear Orientation (Angstroms)
    I     Atom           X                Y                Z
 ----------------------------------------------------------------
    1      O      -0.5443400000     0.1504400000     0.8074000000
    2      H      -1.4389400000     0.4432400000     0.8584000000
    3      H      -0.5001400000    -0.7862600000     0.7654000000
    4      O       1.3491600000     2.5933400000     0.7844000000
    5      H       1.1971600000     1.6388400000     0.9244000000
    6      H       2.1171600000     2.8921400000     1.2554000000
    7      O      -0.6073400000    -0.1717600000    -2.3726000000
    8      H      -0.1853400000     0.4853400000    -1.8596000000
    9      H      -1.5157400000    -0.1705600000    -2.0526000000
   10      O       0.1554600000    -2.2779600000    -0.7286000000
   11      H      -0.3993400000    -3.0349600000    -0.6396000000
   12      H      -0.0702400000    -1.7605600000    -1.5246000000
   13      O       2.9041600000    -2.0044600000    -0.0486000000
   14      H       3.1351600000    -2.7499600000    -0.7296000000
   15      H       1.8981600000    -2.0725600000    -0.0696000000
   16      O      -3.1796400000     1.7743400000     1.5964000000
   17      H      -2.2592400000     1.9979400000     1.7924000000
   18      H      -3.2077400000     2.1028400000     0.6704000000
 ----------------------------------------------------------------
 Nuclear Repulsion Energy =         256.80625098 hartrees
 There are       30 alpha and       30 beta electrons
 Requested basis set is cc-pV5Z
 There are 306 shells and 1206 basis functions

 Total QAlloc Memory Limit  48000 MB
 Mega-Array Size      7821 MB
 MEM_STATIC part      8000 MB

 A cutoff of  1.0D-12 yielded  28951 shell pairs
 There are    382065 function pairs (    632227 Cartesian)
 Smallest overlap matrix eigenvalue = 2.41E-05

 Scale SEOQF with 1.000000e-01/1.000000e-01/1.000000e-01

 Standard Electronic Orientation quadrupole field applied
 Nucleus-field energy     =     0.0000000110 hartrees
 Guess MOs from SCF MO coefficient file
 Reading MOs from coefficient file
 Reading MOs from coefficient file
 Skipping gen_scfman as requested.
 MAX_CIS_SUBSPACE fits in available memory
 Direct TDDFT/TDA calculation will be performed
 Exchange:     0.2000 Hartree-Fock + 0.0800 Slater + 0.7200 B88
 Correlation:  0.1900 VWN1RPA + 0.8100 LYP
 Using Euler-Maclaurin-Lebedev (75,302) quadrature formula
 Singlet excitation energies requested
 CIS energy converged when residual is below 10e- 6
   
 ***Using a Restricted Set of Single Excitations***
   
 RCIS calculation
   
 Excitations from specified occupied orbitals
 -------------------------------------------------------------
              Orbitals in Truncated CIS space
 -------------------------------------------------------------
     4  31  32  33  34  35  36  37  38  39  40  41  42  43  44
    45  46  47  48  49  50  51  52  53  54  55  56  57  58  59
    60  61  62  63  64  65  66  67  68  69  70  71  72  73  74
    75  76  77  78  79  80  81  82  83  84  85  86  87  88  89
    90  91  92  93  94  95  96  97  98  99 100 101 102 103 104
   105 106 107 108 109 110 111 112 113 114 115 116 117 118 119
   120 121 122 123 124 125 126 127 128 129 130 131 132 133 134
   135 136 137 138 139 140 141 142 143 144 145 146 147 148 149
   150 151 152 153 154 155 156 157 158 159 160 161 162 163 164
   165 166 167 168 169 170 171 172 173 174 175 176 177 178 179
   180 181 182 183 184 185 186 187 188 189 190 191 192 193 194
   195 196 197 198 199 200 201 202 203 204 205 206 207 208 209
   210 211 212 213 214 215 216 217 218 219 220 221 222 223 224
   225 226 227 228 229 230 231 232 233 234 235 236 237 238 239
   240 241 242 243 244 245 246 247 248 249 250 251 252 253 254
   255 256 257 258 259 260 261 262 263 264 265 266 267 268 269
   270 271 272 273 274 275 276 277 278 279 280 281 282 283 284
   285 286 287 288 289 290 291 292 293 294 295 296 297 298 299
   300 301 302 303 304 305 306 307 308 309 310 311 312 313 314
   315 316 317 318 319 320 321 322 323 324 325 326 327 328 329
   330 331 332 333 334 335 336 337 338 339 340 341 342 343 344
   345 346 347 348 349 350 351 352 353 354 355 356 357 358 359
   360 361 362 363 364 365 366 367 368 369 370 371 372 373 374
   375 376 377 378 379 380 381 382 383 384 385 386 387 388 389
   390 391 392 393 394 395 396 397 398 399 400 401 402 403 404
   405 406 407 408 409 410 411 412 413 414 415 416 417 418 419
   420 421 422 423 424 425 426 427 428 429 430 431 432 433 434
   435 436 437 438 439 440 441 442 443 444 445 446 447 448 449
   450 451 452 453 454 455 456 457 458 459 460 461 462 463 464
   465 466 467 468 469 470 471 472 473 474 475 476 477 478 479
   480 481 482 483 484 485 486 487 488 489 490 491 492 493 494
   495 496 497 498 499 500 501 502 503 504 505 506 507 508 509
   510 511 512 513 514 515 516 517 518 519 520 521 522 523 524
   525 526 527 528 529 530 531 532 533 534 535 536 537 538 539
   540 541 542 543 544 545 546 547 548 549 550 551 552 553 554
   555 556 557 558 559 560 561 562 563 564 565 566 567 568 569
   570 571 572 573 574 575 576 577 578 579 580 581 582 583 584
   585 586 587 588 589 590 591 592 593 594 595 596 597 598 599
   600 601 602 603 604 605 606 607 608 609 610 611 612 613 614
   615 616 617 618 619 620 621 622 623 624 625 626 627 628 629
   630 631 632 633 634 635 636 637 638 639 640 641 642 643 644
   645 646 647 648 649 650 651 652 653 654 655 656 657 658 659
   660 661 662 663 664 665 666 667 668 669 670 671 672 673 674
   675 676 677 678 679 680 681 682 683 684 685 686 687 688 689
   690 691 692 693 694 695 696 697 698 699 700 701 702 703 704
   705 706 707 708 709 710 711 712 713 714 715 716 717 718 719
   720 721 722 723 724 725 726 727 728 729 730 731 732 733 734
   735 736 737 738 739 740 741 742 743 744 745 746 747 748 749
   750 751 752 753 754 755 756 757 758 759 760 761 762 763 764
   765 766 767 768 769 770 771 772 773 774 775 776 777 778 779
   780 781 782 783 784 785 786 787 788 789 790 791 792 793 794
   795 796 797 798 799 800 801 802 803 804 805 806 807 808 809
   810 811 812 813 814 815 816 817 818 819 820 821 822 823 824
   825 826 827 828 829 830 831 832 833 834 835 836 837 838 839
   840 841 842 843 844 845 846 847 848 849 850 851 852 853 854
   855 856 857 858 859 860 861 862 863 864 865 866 867 868 869
   870 871 872 873 874 875 876 877 878 879 880 881 882 883 884
   885 886 887 888 889 890 891 892 893 894 895 896 897 898 899
   900 901 902 903 904 905 906 907 908 909 910 911 912 913 914
   915 916 917 918 919 920 921 922 923 924 925 926 927 928 929
   930 931 932 933 934 935 936 937 938 939 940 941 942 943 944
   945 946 947 948 949 950 951 952 953 954 955 956 957 958 959
   960 961 962 963 964 965 966 967 968 969 970 971 972 973 974
   975 976 977 978 979 980 981 982 983 984 985 986 987 988 989
   990 991 992 993 994 995 996 997 998 99910001001100210031004
  100510061007100810091010101110121013101410151016101710181019
  102010211022102310241025102610271028102910301031103210331034
  103510361037103810391040104110421043104410451046104710481049
  105010511052105310541055105610571058105910601061106210631064
  106510661067106810691070107110721073107410751076107710781079
  108010811082108310841085108610871088108910901091109210931094
  109510961097109810991100110111021103110411051106110711081109
  111011111112111311141115111611171118111911201121112211231124
  112511261127112811291130113111321133113411351136113711381139
  114011411142114311441145114611471148114911501151115211531154
  115511561157115811591160116111621163116411651166116711681169
  117011711172117311741175117611771178117911801181118211831184
  118511861187118811891190119111921193119411951196119711981199
  1200120112021203120412051206
   
    Number of Occupied Orbitals =    1  out of    30
    Number of Virtual Orbitals  = 1176  out of  1176
 -------------------------------------------------------------
 Number of Roots adjusted to:         150
 ---------------------------------------------------
 Iter    Rts Conv    Rts Left    Ttl Dev     Max Dev
 ---------------------------------------------------
   1         0         150      0.016134    0.000284
   2        36         114      0.010291    0.000169
   3       145           5      0.010242    0.000169
   4       150           0      0.010242    0.000169    Roots Converged
 ---------------------------------------------------

 ---------------------------------------------------
         TDDFT/TDA Excitation Energies              
 ---------------------------------------------------

 Excited state   1: excitation energy (eV) =     518.5050
 Total energy for state   1:                  -439.80228881 au
    Multiplicity: Singlet
    Trans. Mom.: -0.0133 X  -0.0019 Y  -0.0041 Z
    Strength   :     0.0025056304
    D(    4) --> V(    1) amplitude =  0.9879

 Excited state   2: excitation energy (eV) =     519.6414
 Total energy for state   2:                  -439.76052936 au
    Multiplicity: Singlet
    Trans. Mom.: -0.0072 X   0.0136 Y   0.0038 Z
    Strength   :     0.0031832074
    D(    4) --> V(    2) amplitude =  0.9879

 Excited state   3: excitation energy (eV) =     520.0987
 Total energy for state   3:                  -439.74372412 au
    Multiplicity: Singlet
    Trans. Mom.:  0.0015 X  -0.0053 Y   0.0136 Z
    Strength   :     0.0027409017
    D(    4) --> V(    3) amplitude =  0.9545

 Excited state   4: excitation energy (eV) =     520.3984
 Total energy for state   4:                  -439.73270955 au
    Multiplicity: Singlet
    Trans. Mom.: -0.0142 X  -0.0102 Y   0.0060 Z
    Strength   :     0.0043876468
    D(    4) --> V(    4) amplitude =  0.9452

 Excited state   5: excitation energy (eV) =     520.8761
 Total energy for state   5:                  -439.71515493 au
    Multiplicity: Singlet
    Trans. Mom.: -0.0089 X  -0.0109 Y   0.0039 Z
    Strength   :     0.0027262443
    D(    4) --> V(    4) amplitude = -0.2428
    D(    4) --> V(    5) amplitude =  0.7759
    D(    4) --> V(    6) amplitude =  0.4866

 Excited state   6: excitation energy (eV) =     521.1718
 Total energy for state   6:                  -439.70428766 au
    Multiplicity: Singlet
    Trans. Mom.: -0.0099 X  -0.0079 Y   0.0024 Z
    Strength   :     0.0021159095
    D(    4) --> V(    5) amplitude = -0.5851
    D(    4) --> V(    6) amplitude =  0.7538
    D(    4) --> V(    7) amplitude =  0.2224

 Excited state   7: excitation energy (eV) =     521.5745
 Total energy for state   7:                  -439.68948697 au
    Multiplicity: Singlet
    Trans. Mom.: -0.0038 X  -0.0056 Y   0.0012 Z
    Strength   :     0.0006105063
    D(    4) --> V(    6) amplitude = -0.3317
    D(    4) --> V(    7) amplitude =  0.9291

 Excited state   8: excitation energy (eV) =     521.7451
 Total energy for state   8:                  -439.68322018 au
    Multiplicity: Singlet
    Trans. Mom.: -0.0074 X   0.0089 Y   0.0057 Z
    Strength   :     0.0021225134
    D(    4) --> V(    8) amplitude =  0.9724

 Excited state   9: excitation energy (eV) =     522.4121
 Total energy for state   9:                  -439.65870829 au
    Multiplicity: Singlet
    Trans. Mom.: -0.0274 X   0.0160 Y  -0.0082 Z
    Strength   :     0.0137334923
    D(    4) --> V(    9) amplitude =  0.7651
    D(    4) --> V(   10) amplitude =  0.3099
    D(    4) --> V(   11) amplitude = -0.4438
    D(    4) --> V(   12) amplitude =  0.2660

 Excited state  10: excitation energy (eV) =     522.6688
 Total energy for state  10:                  -439.64927437 au
    Multiplicity: Singlet
    Trans. Mom.:  0.0010 X  -0.0226 Y  -0.0004 Z
    Strength   :     0.0065546415
    D(    4) --> V(    9) amplitude =  0.4575
    D(    4) --> V(   10) amplitude =  0.2289
    D(    4) --> V(   11) amplitude =  0.8143

 Excited state  11: excitation energy (eV) =     522.9225
 Total energy for state  11:                  -439.63994960 au
    Multiplicity: Singlet
    Trans. Mom.: -0.0044 X  -0.0051 Y   0.0005 Z
    Strength   :     0.0005760665
    D(    4) --> V(    9) amplitude = -0.4027
    D(    4) --> V(   10) amplitude =  0.9075

 Excited state  12: excitation energy (eV) =     523.5665
 Total energy for state  12:                  -439.61628382 au
    Multiplicity: Singlet
    Trans. Mom.: -0.0135 X   0.0048 Y  -0.0049 Z
    Strength   :     0.0029314560
    D(    4) --> V(   11) amplitude =  0.2969
    D(    4) --> V(   12) amplitude =  0.9032

 Excited state  13: excitation energy (eV) =     523.9119
 Total energy for state  13:                  -439.60358998 au
    Multiplicity: Singlet
    Trans. Mom.: -0.0032 X   0.0038 Y   0.0102 Z
    Strength   :     0.0016635496
    D(    4) --> V(   13) amplitude =  0.9547

 Excited state  14: excitation energy (eV) =     524.9314
 Total energy for state  14:                  -439.56612568 au
    Multiplicity: Singlet
    Trans. Mom.:  0.0035 X  -0.0142 Y  -0.0185 Z
    Strength   :     0.0071304516
    D(    4) --> V(   14) amplitude =  0.7420
    D(    4) --> V(   15) amplitude = -0.4483
    D(    4) --> V(   16) amplitude =  0.3044
    D(    4) --> V(   17) amplitude = -0.2551

 Excited state  15: excitation energy (eV) =     525.0697
 Total energy for state  15:                  -439.56104339 au
    Multiplicity: Singlet
    Trans. Mom.: -0.0069 X  -0.0008 Y   0.0168 Z
    Strength   :     0.0042471144
    D(    4) --> V(   14) amplitude =  0.5524
    D(    4) --> V(   16) amplitude = -0.4765
    D(    4) --> V(   17) amplitude =  0.6208

 Excited state  16: excitation energy (eV) =     525.1741
 Total energy for state  16:                  -439.55720444 au
    Multiplicity: Singlet
    Trans. Mom.:  0.0022 X   0.0069 Y  -0.0003 Z
    Strength   :     0.0006709339
    D(    4) --> V(   14) amplitude =  0.3389
    D(    4) --> V(   15) amplitude =  0.7422
    D(    4) --> V(   17) amplitude = -0.4987

 Excited state  17: excitation energy (eV) =     525.3005
 Total energy for state  17:                  -439.55256001 au
    Multiplicity: Singlet
    Trans. Mom.: -0.0075 X  -0.0006 Y  -0.0019 Z
    Strength   :     0.0007761998
    D(    4) --> V(   15) amplitude =  0.3642
    D(    4) --> V(   16) amplitude =  0.7838
    D(    4) --> V(   17) amplitude =  0.3956

 Excited state  18: excitation energy (eV) =     525.6162
 Total energy for state  18:                  -439.54095828 au
    Multiplicity: Singlet
    Trans. Mom.:  0.0060 X   0.0027 Y  -0.0026 Z
    Strength   :     0.0006453978
    D(    4) --> V(   18) amplitude =  0.9475

 Excited state  19: excitation energy (eV) =     525.7656
 Total energy for state  19:                  -439.53546870 au
    Multiplicity: Singlet
    Trans. Mom.:  0.0187 X  -0.0039 Y  -0.0024 Z
    Strength   :     0.0047645001
    D(    4) --> V(   17) amplitude =  0.2257
    D(    4) --> V(   19) amplitude = -0.5339
    D(    4) --> V(   20) amplitude =  0.6757
    D(    4) --> V(   21) amplitude = -0.2180
    D(    4) --> V(   22) amplitude = -0.2472

 Excited state  20: excitation energy (eV) =     526.0113
 Total energy for state  20:                  -439.52643953 au
    Multiplicity: Singlet
    Trans. Mom.:  0.0082 X   0.0108 Y   0.0068 Z
    Strength   :     0.0029652537
    D(    4) --> V(   19) amplitude =  0.5484
    D(    4) --> V(   20) amplitude =  0.3691
    D(    4) --> V(   21) amplitude = -0.4138
    D(    4) --> V(   22) amplitude =  0.3330
    D(    4) --> V(   23) amplitude = -0.3883

 Excited state  21: excitation energy (eV) =     526.0615
 Total energy for state  21:                  -439.52459253 au
    Multiplicity: Singlet
    Trans. Mom.: -0.0007 X   0.0171 Y  -0.0006 Z
    Strength   :     0.0037856213
    D(    4) --> V(   19) amplitude = -0.3723
    D(    4) --> V(   21) amplitude =  0.5027
    D(    4) --> V(   22) amplitude =  0.6791
    D(    4) --> V(   23) amplitude = -0.2328

 Excited state  22: excitation energy (eV) =     526.1405
 Total energy for state  22:                  -439.52169162 au
    Multiplicity: Singlet
    Trans. Mom.: -0.0058 X   0.0013 Y  -0.0050 Z
    Strength   :     0.0007852362
    D(    4) --> V(   19) amplitude =  0.4490
    D(    4) --> V(   20) amplitude =  0.5171
    D(    4) --> V(   21) amplitude =  0.5710
    D(    4) --> V(   23) amplitude =  0.3289

 Excited state  23: excitation energy (eV) =     526.2630
 Total energy for state  23:                  -439.51718870 au
    Multiplicity: Singlet
    Trans. Mom.: -0.0048 X  -0.0041 Y  -0.0118 Z
    Strength   :     0.0023192367
    D(    4) --> V(   21) amplitude = -0.3627
    D(    4) --> V(   22) amplitude =  0.5065
    D(    4) --> V(   23) amplitude =  0.7337

 Excited state  24: excitation energy (eV) =     526.7191
 Total energy for state  24:                  -439.50042702 au
    Multiplicity: Singlet
    Trans. Mom.: -0.0056 X  -0.0074 Y  -0.0070 Z
    Strength   :     0.0017523060
    D(    4) --> V(   23) amplitude = -0.2281
    D(    4) --> V(   24) amplitude =  0.7683
    D(    4) --> V(   25) amplitude = -0.2795
    D(    4) --> V(   26) amplitude = -0.3899

 Excited state  25: excitation energy (eV) =     526.8162
 Total energy for state  25:                  -439.49686122 au
    Multiplicity: Singlet
    Trans. Mom.:  0.0076 X  -0.0047 Y  -0.0075 Z
    Strength   :     0.0017618707
    D(    4) --> V(   25) amplitude =  0.8814
    D(    4) --> V(   28) amplitude =  0.2826

 Excited state  26: excitation energy (eV) =     526.8619
 Total energy for state  26:                  -439.49518005 au
    Multiplicity: Singlet
    Trans. Mom.:  0.0026 X   0.0084 Y   0.0108 Z
    Strength   :     0.0024859518
    D(    4) --> V(   24) amplitude =  0.5230
    D(    4) --> V(   26) amplitude =  0.2759
    D(    4) --> V(   27) amplitude =  0.6168
    D(    4) --> V(   28) amplitude = -0.3655

 Excited state  27: excitation energy (eV) =     527.0224
 Total energy for state  27:                  -439.48928014 au
    Multiplicity: Singlet
    Trans. Mom.: -0.0027 X  -0.0014 Y   0.0045 Z
    Strength   :     0.0003822620
    D(    4) --> V(   24) amplitude =  0.2395
    D(    4) --> V(   26) amplitude =  0.7476
    D(    4) --> V(   27) amplitude = -0.5719

 Excited state  28: excitation energy (eV) =     527.1120
 Total energy for state  28:                  -439.48598927 au
    Multiplicity: Singlet
    Trans. Mom.: -0.0014 X  -0.0162 Y  -0.0006 Z
    Strength   :     0.0034180744
    D(    4) --> V(   26) amplitude =  0.3768
    D(    4) --> V(   27) amplitude =  0.4268
    D(    4) --> V(   28) amplitude =  0.7035

 Excited state  29: excitation energy (eV) =     527.4185
 Total energy for state  29:                  -439.47472568 au
    Multiplicity: Singlet
    Trans. Mom.:  0.0088 X   0.0065 Y  -0.0072 Z
    Strength   :     0.0022087806
    D(    4) --> V(   29) amplitude =  0.8270
    D(    4) --> V(   31) amplitude = -0.3000
    D(    4) --> V(   32) amplitude =  0.2999

 Excited state  30: excitation energy (eV) =     527.5848
 Total energy for state  30:                  -439.46861405 au
    Multiplicity: Singlet
    Trans. Mom.:  0.0037 X   0.0100 Y  -0.0052 Z
    Strength   :     0.0018236859
    D(    4) --> V(   28) amplitude =  0.2846
    D(    4) --> V(   29) amplitude = -0.4775
    D(    4) --> V(   30) amplitude =  0.5801
    D(    4) --> V(   31) amplitude = -0.4642
    D(    4) --> V(   32) amplitude =  0.3029

 Excited state  31: excitation energy (eV) =     527.7906
 Total energy for state  31:                  -439.46105137 au
    Multiplicity: Singlet
    Trans. Mom.: -0.0074 X   0.0064 Y   0.0071 Z
    Strength   :     0.0018875807
    D(    4) --> V(   30) amplitude =  0.6328
    D(    4) --> V(   31) amplitude =  0.5335
    D(    4) --> V(   32) amplitude = -0.2732
    D(    4) --> V(   33) amplitude =  0.3920

 Excited state  32: excitation energy (eV) =     527.9689
 Total energy for state  32:                  -439.45449682 au
    Multiplicity: Singlet
    Trans. Mom.: -0.0114 X   0.0145 Y   0.0003 Z
    Strength   :     0.0044231363
    D(    4) --> V(   30) amplitude = -0.3788
    D(    4) --> V(   32) amplitude =  0.4554
    D(    4) --> V(   33) amplitude =  0.7444

 Excited state  33: excitation energy (eV) =     528.1198
 Total energy for state  33:                  -439.44895223 au
    Multiplicity: Singlet
    Trans. Mom.:  0.0058 X  -0.0018 Y  -0.0043 Z
    Strength   :     0.0007260416
    D(    4) --> V(   31) amplitude =  0.5736
    D(    4) --> V(   32) amplitude =  0.6066
    D(    4) --> V(   33) amplitude = -0.4445
    D(    4) --> V(   34) amplitude =  0.2494

 Excited state  34: excitation energy (eV) =     528.3464
 Total energy for state  34:                  -439.44062436 au
    Multiplicity: Singlet
    Trans. Mom.:  0.0023 X   0.0079 Y  -0.0046 Z
    Strength   :     0.0011452937
    D(    4) --> V(   32) amplitude = -0.3102
    D(    4) --> V(   34) amplitude =  0.9056

 Excited state  35: excitation energy (eV) =     528.6250
 Total energy for state  35:                  -439.43038888 au
    Multiplicity: Singlet
    Trans. Mom.:  0.0050 X  -0.0008 Y   0.0034 Z
    Strength   :     0.0004779970
    D(    4) --> V(   35) amplitude =  0.9502

 Excited state  36: excitation energy (eV) =     528.9743
 Total energy for state  36:                  -439.41754901 au
    Multiplicity: Singlet
    Trans. Mom.: -0.0096 X  -0.0014 Y  -0.0009 Z
    Strength   :     0.0012408224
    D(    4) --> V(   36) amplitude =  0.8877
    D(    4) --> V(   37) amplitude = -0.3606
    D(    4) --> V(   38) amplitude = -0.2275

 Excited state  37: excitation energy (eV) =     529.0858
 Total energy for state  37:                  -439.41345221 au
    Multiplicity: Singlet
    Trans. Mom.:  0.0085 X  -0.0021 Y   0.0071 Z
    Strength   :     0.0016636366
    D(    4) --> V(   37) amplitude = -0.4097
    D(    4) --> V(   38) amplitude =  0.8781

 Excited state  38: excitation energy (eV) =     529.1463
 Total energy for state  38:                  -439.41123001 au
    Multiplicity: Singlet
    Trans. Mom.:  0.0064 X   0.0007 Y   0.0018 Z
    Strength   :     0.0005734123
    D(    4) --> V(   36) amplitude =  0.4185
    D(    4) --> V(   37) amplitude =  0.8239
    D(    4) --> V(   38) amplitude =  0.3245

 Excited state  39: excitation energy (eV) =     529.5421
 Total energy for state  39:                  -439.39668391 au
    Multiplicity: Singlet
    Trans. Mom.:  0.0044 X  -0.0094 Y   0.0030 Z
    Strength   :     0.0015045143
    D(    4) --> V(   39) amplitude =  0.9084
    D(    4) --> V(   40) amplitude =  0.3285

 Excited state  40: excitation energy (eV) =     529.7840
 Total energy for state  40:                  -439.38779338 au
    Multiplicity: Singlet
    Trans. Mom.: -0.0019 X  -0.0115 Y   0.0075 Z
    Strength   :     0.0024890020
    D(    4) --> V(   39) amplitude = -0.3701
    D(    4) --> V(   40) amplitude =  0.8555
    D(    4) --> V(   42) amplitude = -0.2608

 Excited state  41: excitation energy (eV) =     530.1195
 Total energy for state  41:                  -439.37546516 au
    Multiplicity: Singlet
    Trans. Mom.: -0.0005 X   0.0131 Y  -0.0041 Z
    Strength   :     0.0024525609
    D(    4) --> V(   40) amplitude =  0.3358
    D(    4) --> V(   41) amplitude =  0.6919
    D(    4) --> V(   42) amplitude =  0.6061

 Excited state  42: excitation energy (eV) =     530.3058
 Total energy for state  42:                  -439.36861859 au
    Multiplicity: Singlet
    Trans. Mom.:  0.0010 X   0.0001 Y  -0.0047 Z
    Strength   :     0.0003020583
    D(    4) --> V(   41) amplitude = -0.6686
    D(    4) --> V(   42) amplitude =  0.7064

 Excited state  43: excitation energy (eV) =     530.6180
 Total energy for state  43:                  -439.35714591 au
    Multiplicity: Singlet
    Trans. Mom.:  0.0002 X   0.0035 Y  -0.0008 Z
    Strength   :     0.0001638329
    D(    4) --> V(   43) amplitude =  0.9047
    D(    4) --> V(   44) amplitude =  0.3658

 Excited state  44: excitation energy (eV) =     530.7989
 Total energy for state  44:                  -439.35049894 au
    Multiplicity: Singlet
    Trans. Mom.:  0.0034 X   0.0028 Y  -0.0024 Z
    Strength   :     0.0003287495
    D(    4) --> V(   43) amplitude = -0.3767
    D(    4) --> V(   44) amplitude =  0.9026

 Excited state  45: excitation energy (eV) =     531.0362
 Total energy for state  45:                  -439.34177778 au
    Multiplicity: Singlet
    Trans. Mom.: -0.0042 X   0.0058 Y  -0.0038 Z
    Strength   :     0.0008402487
    D(    4) --> V(   45) amplitude =  0.9758

 Excited state  46: excitation energy (eV) =     531.5943
 Total energy for state  46:                  -439.32126668 au
    Multiplicity: Singlet
    Trans. Mom.:  0.0103 X  -0.0047 Y   0.0087 Z
    Strength   :     0.0026541361
    D(    4) --> V(   46) amplitude =  0.9193
    D(    4) --> V(   47) amplitude =  0.2730

 Excited state  47: excitation energy (eV) =     531.9616
 Total energy for state  47:                  -439.30776976 au
    Multiplicity: Singlet
    Trans. Mom.:  0.0130 X   0.0008 Y   0.0033 Z
    Strength   :     0.0023454292
    D(    4) --> V(   46) amplitude = -0.3530
    D(    4) --> V(   47) amplitude =  0.7526
    D(    4) --> V(   48) amplitude =  0.3718
    D(    4) --> V(   49) amplitude =  0.3562

 Excited state  48: excitation energy (eV) =     532.1791
 Total energy for state  48:                  -439.29977723 au
    Multiplicity: Singlet
    Trans. Mom.: -0.0088 X   0.0012 Y  -0.0031 Z
    Strength   :     0.0011628905
    D(    4) --> V(   47) amplitude = -0.5685
    D(    4) --> V(   48) amplitude =  0.5385
    D(    4) --> V(   49) amplitude =  0.5979

 Excited state  49: excitation energy (eV) =     532.5197
 Total energy for state  49:                  -439.28726051 au
    Multiplicity: Singlet
    Trans. Mom.: -0.0032 X  -0.0054 Y   0.0028 Z
    Strength   :     0.0006217253
    D(    4) --> V(   48) amplitude =  0.7000
    D(    4) --> V(   49) amplitude = -0.6372
    D(    4) --> V(   50) amplitude = -0.2816

 Excited state  50: excitation energy (eV) =     532.7234
 Total energy for state  50:                  -439.27977416 au
    Multiplicity: Singlet
    Trans. Mom.:  0.0090 X   0.0003 Y  -0.0033 Z
    Strength   :     0.0011937277
    D(    4) --> V(   49) amplitude = -0.2815
    D(    4) --> V(   50) amplitude =  0.9234

 Excited state  51: excitation energy (eV) =     533.2320
 Total energy for state  51:                  -439.26108475 au
    Multiplicity: Singlet
    Trans. Mom.:  0.0042 X   0.0084 Y  -0.0123 Z
    Strength   :     0.0031248829
    D(    4) --> V(   51) amplitude =  0.8449
    D(    4) --> V(   52) amplitude =  0.3619
    D(    4) --> V(   53) amplitude =  0.3166

 Excited state  52: excitation energy (eV) =     533.4212
 Total energy for state  52:                  -439.25413064 au
    Multiplicity: Singlet
    Trans. Mom.:  0.0054 X   0.0051 Y  -0.0052 Z
    Strength   :     0.0010785978
    D(    4) --> V(   51) amplitude = -0.4111
    D(    4) --> V(   52) amplitude =  0.8960

 Excited state  53: excitation energy (eV) =     533.7953
 Total energy for state  53:                  -439.24038073 au
    Multiplicity: Singlet
    Trans. Mom.:  0.0069 X  -0.0029 Y  -0.0054 Z
    Strength   :     0.0011135763
    D(    4) --> V(   51) amplitude = -0.2986
    D(    4) --> V(   53) amplitude =  0.9052

 Excited state  54: excitation energy (eV) =     534.2206
 Total energy for state  54:                  -439.22475130 au
    Multiplicity: Singlet
    Trans. Mom.: -0.0012 X  -0.0001 Y  -0.0099 Z
    Strength   :     0.0012922807
    D(    4) --> V(   54) amplitude =  0.9716

 Excited state  55: excitation energy (eV) =     534.8165
 Total energy for state  55:                  -439.20285540 au
    Multiplicity: Singlet
    Trans. Mom.:  0.0039 X   0.0049 Y   0.0005 Z
    Strength   :     0.0005130269
    D(    4) --> V(   55) amplitude =  0.9656

 Excited state  56: excitation energy (eV) =     535.2082
 Total energy for state  56:                  -439.18845893 au
    Multiplicity: Singlet
    Trans. Mom.:  0.0002 X   0.0034 Y  -0.0007 Z
    Strength   :     0.0001615996
    D(    4) --> V(   56) amplitude =  0.9479
    D(    4) --> V(   58) amplitude = -0.2642

 Excited state  57: excitation energy (eV) =     535.4125
 Total energy for state  57:                  -439.18095101 au
    Multiplicity: Singlet
    Trans. Mom.:  0.0010 X  -0.0038 Y   0.0010 Z
    Strength   :     0.0002159830
    D(    4) --> V(   57) amplitude =  0.7098
    D(    4) --> V(   58) amplitude =  0.6648

 Excited state  58: excitation energy (eV) =     535.5894
 Total energy for state  58:                  -439.17444968 au
    Multiplicity: Singlet
    Trans. Mom.: -0.0013 X   0.0003 Y  -0.0004 Z
    Strength   :     0.0000253355
    D(    4) --> V(   56) amplitude = -0.2723
    D(    4) --> V(   57) amplitude =  0.6852
    D(    4) --> V(   58) amplitude = -0.6538

 Excited state  59: excitation energy (eV) =     536.2470
 Total energy for state  59:                  -439.15028262 au
    Multiplicity: Singlet
    Trans. Mom.: -0.0038 X   0.0009 Y  -0.0066 Z
    Strength   :     0.0007737293
    D(    4) --> V(   59) amplitude =  0.9425
    D(    4) --> V(   62) amplitude =  0.2861

 Excited state  60: excitation energy (eV) =     536.2989
 Total energy for state  60:                  -439.14837710 au
    Multiplicity: Singlet
    Trans. Mom.:  0.0091 X  -0.0073 Y   0.0057 Z
    Strength   :     0.0022133947
    D(    4) --> V(   59) amplitude =  0.2184
    D(    4) --> V(   60) amplitude =  0.8778
    D(    4) --> V(   62) amplitude = -0.3512

 Excited state  61: excitation energy (eV) =     536.5009
 Total energy for state  61:                  -439.14095323 au
    Multiplicity: Singlet
    Trans. Mom.:  0.0057 X   0.0013 Y  -0.0060 Z
    Strength   :     0.0009198364
    D(    4) --> V(   60) amplitude =  0.3669
    D(    4) --> V(   61) amplitude =  0.5336
    D(    4) --> V(   62) amplitude =  0.6712
    D(    4) --> V(   63) amplitude = -0.2852

 Excited state  62: excitation energy (eV) =     536.6693
 Total energy for state  62:                  -439.13476356 au
    Multiplicity: Singlet
    Trans. Mom.: -0.0089 X  -0.0036 Y   0.0069 Z
    Strength   :     0.0018526127
    D(    4) --> V(   61) amplitude =  0.8097
    D(    4) --> V(   62) amplitude = -0.5234

 Excited state  63: excitation energy (eV) =     536.9120
 Total energy for state  63:                  -439.12584708 au
    Multiplicity: Singlet
    Trans. Mom.: -0.0035 X  -0.0017 Y  -0.0013 Z
    Strength   :     0.0002246832
    D(    4) --> V(   60) amplitude =  0.2249
    D(    4) --> V(   63) amplitude =  0.9348

 Excited state  64: excitation energy (eV) =     537.4173
 Total energy for state  64:                  -439.10727499 au
    Multiplicity: Singlet
    Trans. Mom.: -0.0027 X   0.0079 Y   0.0079 Z
    Strength   :     0.0017273338
    D(    4) --> V(   64) amplitude =  0.9730

 Excited state  65: excitation energy (eV) =     537.5782
 Total energy for state  65:                  -439.10136282 au
    Multiplicity: Singlet
    Trans. Mom.:  0.0100 X  -0.0016 Y  -0.0043 Z
    Strength   :     0.0015896570
    D(    4) --> V(   65) amplitude =  0.9747

 Excited state  66: excitation energy (eV) =     538.2463
 Total energy for state  66:                  -439.07681043 au
    Multiplicity: Singlet
    Trans. Mom.:  0.0048 X  -0.0126 Y  -0.0109 Z
    Strength   :     0.0039422982
    D(    4) --> V(   66) amplitude =  0.9821

 Excited state  67: excitation energy (eV) =     538.3300
 Total energy for state  67:                  -439.07373465 au
    Multiplicity: Singlet
    Trans. Mom.: -0.0035 X  -0.0032 Y   0.0020 Z
    Strength   :     0.0003465459
    D(    4) --> V(   67) amplitude =  0.9559
    D(    4) --> V(   68) amplitude =  0.2185

 Excited state  68: excitation energy (eV) =     538.4937
 Total energy for state  68:                  -439.06771876 au
    Multiplicity: Singlet
    Trans. Mom.: -0.0039 X   0.0014 Y   0.0059 Z
    Strength   :     0.0006839634
    D(    4) --> V(   67) amplitude = -0.2657
    D(    4) --> V(   68) amplitude =  0.7325
    D(    4) --> V(   69) amplitude = -0.5960

 Excited state  69: excitation energy (eV) =     538.7149
 Total energy for state  69:                  -439.05958957 au
    Multiplicity: Singlet
    Trans. Mom.:  0.0015 X   0.0046 Y  -0.0034 Z
    Strength   :     0.0004543599
    D(    4) --> V(   68) amplitude =  0.6211
    D(    4) --> V(   69) amplitude =  0.7611

 Excited state  70: excitation energy (eV) =     539.4106
 Total energy for state  70:                  -439.03402234 au
    Multiplicity: Singlet
    Trans. Mom.: -0.0012 X  -0.0071 Y   0.0017 Z
    Strength   :     0.0007269428
    D(    4) --> V(   70) amplitude =  0.9377
    D(    4) --> V(   71) amplitude =  0.2905

 Excited state  71: excitation energy (eV) =     539.6775
 Total energy for state  71:                  -439.02421682 au
    Multiplicity: Singlet
    Trans. Mom.:  0.0013 X   0.0008 Y  -0.0018 Z
    Strength   :     0.0000733667
    D(    4) --> V(   70) amplitude = -0.2422
    D(    4) --> V(   71) amplitude =  0.9183
    D(    4) --> V(   72) amplitude =  0.2756

 Excited state  72: excitation energy (eV) =     539.8899
 Total energy for state  72:                  -439.01641129 au
    Multiplicity: Singlet
    Trans. Mom.:  0.0012 X   0.0046 Y  -0.0008 Z
    Strength   :     0.0003022432
    D(    4) --> V(   70) amplitude =  0.2155
    D(    4) --> V(   71) amplitude = -0.2328
    D(    4) --> V(   72) amplitude =  0.9167

 Excited state  73: excitation energy (eV) =     540.1960
 Total energy for state  73:                  -439.00516147 au
    Multiplicity: Singlet
    Trans. Mom.:  0.0121 X   0.0005 Y   0.0006 Z
    Strength   :     0.0019336402
    D(    4) --> V(   73) amplitude =  0.8425
    D(    4) --> V(   74) amplitude =  0.4639

 Excited state  74: excitation energy (eV) =     540.3628
 Total energy for state  74:                  -438.99903038 au
    Multiplicity: Singlet
    Trans. Mom.: -0.0026 X   0.0073 Y   0.0032 Z
    Strength   :     0.0009233506
    D(    4) --> V(   73) amplitude = -0.4814
    D(    4) --> V(   74) amplitude =  0.8352

 Excited state  75: excitation energy (eV) =     540.6488
 Total energy for state  75:                  -438.98852251 au
    Multiplicity: Singlet
    Trans. Mom.:  0.0020 X   0.0038 Y   0.0013 Z
    Strength   :     0.0002614431
    D(    4) --> V(   75) amplitude =  0.9641

 Excited state  76: excitation energy (eV) =     540.8712
 Total energy for state  76:                  -438.98034849 au
    Multiplicity: Singlet
    Trans. Mom.: -0.0040 X  -0.0051 Y  -0.0030 Z
    Strength   :     0.0006842575
    D(    4) --> V(   76) amplitude =  0.8872
    D(    4) --> V(   78) amplitude = -0.3227

 Excited state  77: excitation energy (eV) =     541.0442
 Total energy for state  77:                  -438.97399038 au
    Multiplicity: Singlet
    Trans. Mom.:  0.0031 X  -0.0032 Y   0.0086 Z
    Strength   :     0.0012345533
    D(    4) --> V(   77) amplitude =  0.9567

 Excited state  78: excitation energy (eV) =     541.2467
 Total energy for state  78:                  -438.96654924 au
    Multiplicity: Singlet
    Trans. Mom.: -0.0003 X  -0.0108 Y  -0.0044 Z
    Strength   :     0.0017981426
    D(    4) --> V(   76) amplitude = -0.3671
    D(    4) --> V(   78) amplitude = -0.4702
    D(    4) --> V(   79) amplitude =  0.6072
    D(    4) --> V(   80) amplitude =  0.4518

 Excited state  79: excitation energy (eV) =     541.4766
 Total energy for state  79:                  -438.95809947 au
    Multiplicity: Singlet
    Trans. Mom.: -0.0045 X   0.0075 Y   0.0073 Z
    Strength   :     0.0017378419
    D(    4) --> V(   78) amplitude =  0.2132
    D(    4) --> V(   79) amplitude =  0.6983
    D(    4) --> V(   80) amplitude = -0.6321

 Excited state  80: excitation energy (eV) =     541.6021
 Total energy for state  80:                  -438.95348888 au
    Multiplicity: Singlet
    Trans. Mom.:  0.0050 X  -0.0073 Y  -0.0017 Z
    Strength   :     0.0010662876
    D(    4) --> V(   78) amplitude =  0.7528
    D(    4) --> V(   79) amplitude =  0.2377
    D(    4) --> V(   80) amplitude =  0.5231

 Excited state  81: excitation energy (eV) =     541.9706
 Total energy for state  81:                  -438.93994563 au
    Multiplicity: Singlet
    Trans. Mom.: -0.0056 X  -0.0048 Y   0.0010 Z
    Strength   :     0.0007240452
    D(    4) --> V(   81) amplitude =  0.9576

 Excited state  82: excitation energy (eV) =     542.1461
 Total energy for state  82:                  -438.93349670 au
    Multiplicity: Singlet
    Trans. Mom.:  0.0008 X  -0.0125 Y  -0.0006 Z
    Strength   :     0.0020743070
    D(    4) --> V(   83) amplitude =  0.8765
    D(    4) --> V(   87) amplitude =  0.2496

 Excited state  83: excitation energy (eV) =     542.3813
 Total energy for state  83:                  -438.92485314 au
    Multiplicity: Singlet
    Trans. Mom.: -0.0000 X  -0.0005 Y  -0.0013 Z
    Strength   :     0.0000277685
    D(    4) --> V(   82) amplitude =  0.9451
    D(    4) --> V(   84) amplitude =  0.2757

 Excited state  84: excitation energy (eV) =     542.4058
 Total energy for state  84:                  -438.92395380 au
    Multiplicity: Singlet
    Trans. Mom.:  0.0120 X  -0.0063 Y   0.0008 Z
    Strength   :     0.0024273593
    D(    4) --> V(   80) amplitude = -0.2133
    D(    4) --> V(   82) amplitude = -0.2460
    D(    4) --> V(   83) amplitude = -0.2870
    D(    4) --> V(   84) amplitude =  0.8482

 Excited state  85: excitation energy (eV) =     542.7665
 Total energy for state  85:                  -438.91069608 au
    Multiplicity: Singlet
    Trans. Mom.:  0.0065 X  -0.0009 Y  -0.0033 Z
    Strength   :     0.0007237740
    D(    4) --> V(   85) amplitude =  0.8327
    D(    4) --> V(   86) amplitude =  0.5123

 Excited state  86: excitation energy (eV) =     542.9539
 Total energy for state  86:                  -438.90381148 au
    Multiplicity: Singlet
    Trans. Mom.:  0.0059 X  -0.0102 Y   0.0020 Z
    Strength   :     0.0018992050
    D(    4) --> V(   83) amplitude = -0.2308
    D(    4) --> V(   84) amplitude = -0.2529
    D(    4) --> V(   86) amplitude = -0.2347
    D(    4) --> V(   87) amplitude =  0.8277
    D(    4) --> V(   88) amplitude =  0.3043

 Excited state  87: excitation energy (eV) =     543.0609
 Total energy for state  87:                  -438.89987728 au
    Multiplicity: Singlet
    Trans. Mom.:  0.0012 X   0.0017 Y   0.0025 Z
    Strength   :     0.0001360578
    D(    4) --> V(   85) amplitude = -0.4971
    D(    4) --> V(   86) amplitude =  0.7827
    D(    4) --> V(   87) amplitude =  0.3210

 Excited state  88: excitation energy (eV) =     543.2723
 Total energy for state  88:                  -438.89210801 au
    Multiplicity: Singlet
    Trans. Mom.: -0.0119 X  -0.0005 Y   0.0020 Z
    Strength   :     0.0019456269
    D(    4) --> V(   87) amplitude = -0.2684
    D(    4) --> V(   88) amplitude =  0.9361

 Excited state  89: excitation energy (eV) =     543.8616
 Total energy for state  89:                  -438.87045191 au
    Multiplicity: Singlet
    Trans. Mom.: -0.0032 X  -0.0010 Y  -0.0004 Z
    Strength   :     0.0001550628
    D(    4) --> V(   89) amplitude =  0.9127
    D(    4) --> V(   90) amplitude =  0.3117

 Excited state  90: excitation energy (eV) =     544.1884
 Total energy for state  90:                  -438.85844255 au
    Multiplicity: Singlet
    Trans. Mom.: -0.0126 X  -0.0099 Y  -0.0079 Z
    Strength   :     0.0042366321
    D(    4) --> V(   89) amplitude = -0.3118
    D(    4) --> V(   90) amplitude =  0.9211

 Excited state  91: excitation energy (eV) =     544.6457
 Total energy for state  91:                  -438.84163599 au
    Multiplicity: Singlet
    Trans. Mom.: -0.0093 X   0.0051 Y  -0.0000 Z
    Strength   :     0.0014995140
    D(    4) --> V(   91) amplitude =  0.9502
    D(    4) --> V(   92) amplitude =  0.2139

 Excited state  92: excitation energy (eV) =     545.0473
 Total energy for state  92:                  -438.82687897 au
    Multiplicity: Singlet
    Trans. Mom.: -0.0074 X   0.0054 Y   0.0096 Z
    Strength   :     0.0023534829
    D(    4) --> V(   91) amplitude = -0.2132
    D(    4) --> V(   92) amplitude =  0.9614

 Excited state  93: excitation energy (eV) =     545.5723
 Total energy for state  93:                  -438.80758372 au
    Multiplicity: Singlet
    Trans. Mom.:  0.0069 X  -0.0005 Y  -0.0014 Z
    Strength   :     0.0006710660
    D(    4) --> V(   93) amplitude =  0.9828

 Excited state  94: excitation energy (eV) =     546.1539
 Total energy for state  94:                  -438.78621254 au
    Multiplicity: Singlet
    Trans. Mom.:  0.0044 X   0.0031 Y   0.0040 Z
    Strength   :     0.0006027089
    D(    4) --> V(   94) amplitude =  0.9233
    D(    4) --> V(   95) amplitude = -0.2338

 Excited state  95: excitation energy (eV) =     546.3816
 Total energy for state  95:                  -438.77784407 au
    Multiplicity: Singlet
    Trans. Mom.: -0.0079 X  -0.0179 Y  -0.0031 Z
    Strength   :     0.0052744626
    D(    4) --> V(   94) amplitude =  0.3125
    D(    4) --> V(   95) amplitude =  0.7892
    D(    4) --> V(   96) amplitude = -0.3158
    D(    4) --> V(   97) amplitude = -0.2638
    D(    4) --> V(   99) amplitude =  0.2248

 Excited state  96: excitation energy (eV) =     546.9830
 Total energy for state  96:                  -438.75574149 au
    Multiplicity: Singlet
    Trans. Mom.: -0.0025 X   0.0098 Y   0.0054 Z
    Strength   :     0.0017744220
    D(    4) --> V(   95) amplitude =  0.3127
    D(    4) --> V(   96) amplitude =  0.8950

 Excited state  97: excitation energy (eV) =     547.0619
 Total energy for state  97:                  -438.75284272 au
    Multiplicity: Singlet
    Trans. Mom.:  0.0011 X   0.0027 Y   0.0019 Z
    Strength   :     0.0001623545
    D(    4) --> V(   95) amplitude =  0.4444
    D(    4) --> V(   97) amplitude =  0.8070
    D(    4) --> V(   98) amplitude =  0.2390

 Excited state  98: excitation energy (eV) =     547.3384
 Total energy for state  98:                  -438.74268141 au
    Multiplicity: Singlet
    Trans. Mom.: -0.0076 X  -0.0120 Y   0.0025 Z
    Strength   :     0.0028095684
    D(    4) --> V(   96) amplitude =  0.2360
    D(    4) --> V(   97) amplitude =  0.2244
    D(    4) --> V(   99) amplitude =  0.9218

 Excited state  99: excitation energy (eV) =     547.3861
 Total energy for state  99:                  -438.74093087 au
    Multiplicity: Singlet
    Trans. Mom.: -0.0006 X  -0.0035 Y   0.0058 Z
    Strength   :     0.0006145304
    D(    4) --> V(   97) amplitude = -0.2580
    D(    4) --> V(   98) amplitude =  0.9418

 Excited state 100: excitation energy (eV) =     547.6389
 Total energy for state 100:                  -438.73163826 au
    Multiplicity: Singlet
    Trans. Mom.: -0.0068 X   0.0025 Y  -0.0113 Z
    Strength   :     0.0024167670
    D(    4) --> V(  100) amplitude =  0.7950
    D(    4) --> V(  102) amplitude =  0.3483
    D(    4) --> V(  103) amplitude = -0.3453

 Excited state 101: excitation energy (eV) =     547.9647
 Total energy for state 101:                  -438.71966671 au
    Multiplicity: Singlet
    Trans. Mom.:  0.0040 X  -0.0044 Y   0.0007 Z
    Strength   :     0.0004856469
    D(    4) --> V(  100) amplitude = -0.3036
    D(    4) --> V(  101) amplitude =  0.6891
    D(    4) --> V(  102) amplitude =  0.4956
    D(    4) --> V(  103) amplitude = -0.3435

 Excited state 102: excitation energy (eV) =     548.0714
 Total energy for state 102:                  -438.71574687 au
    Multiplicity: Singlet
    Trans. Mom.:  0.0058 X  -0.0060 Y   0.0029 Z
    Strength   :     0.0010483167
    D(    4) --> V(  100) amplitude =  0.4534
    D(    4) --> V(  101) amplitude =  0.6735
    D(    4) --> V(  102) amplitude = -0.5205

 Excited state 103: excitation energy (eV) =     548.3952
 Total energy for state 103:                  -438.70384670 au
    Multiplicity: Singlet
    Trans. Mom.:  0.0033 X   0.0029 Y   0.0095 Z
    Strength   :     0.0014600226
    D(    4) --> V(  102) amplitude =  0.4874
    D(    4) --> V(  103) amplitude =  0.8188

 Excited state 104: excitation energy (eV) =     548.5477
 Total energy for state 104:                  -438.69824277 au
    Multiplicity: Singlet
    Trans. Mom.: -0.0080 X  -0.0074 Y  -0.0024 Z
    Strength   :     0.0016922235
    D(    4) --> V(  104) amplitude =  0.9750

 Excited state 105: excitation energy (eV) =     549.1212
 Total energy for state 105:                  -438.67716701 au
    Multiplicity: Singlet
    Trans. Mom.:  0.0009 X   0.0017 Y  -0.0036 Z
    Strength   :     0.0002283399
    D(    4) --> V(  105) amplitude =  0.8246
    D(    4) --> V(  107) amplitude =  0.4573

 Excited state 106: excitation energy (eV) =     549.1694
 Total energy for state 106:                  -438.67539436 au
    Multiplicity: Singlet
    Trans. Mom.:  0.0004 X   0.0048 Y   0.0017 Z
    Strength   :     0.0003452927
    D(    4) --> V(  106) amplitude =  0.9577

 Excited state 107: excitation energy (eV) =     549.2079
 Total energy for state 107:                  -438.67398016 au
    Multiplicity: Singlet
    Trans. Mom.:  0.0052 X  -0.0048 Y  -0.0093 Z
    Strength   :     0.0018307332
    D(    4) --> V(  105) amplitude = -0.5179
    D(    4) --> V(  107) amplitude =  0.8181

 Excited state 108: excitation energy (eV) =     549.6008
 Total energy for state 108:                  -438.65954097 au
    Multiplicity: Singlet
    Trans. Mom.: -0.0045 X  -0.0012 Y  -0.0089 Z
    Strength   :     0.0013486278
    D(    4) --> V(  108) amplitude =  0.9438

 Excited state 109: excitation energy (eV) =     549.9358
 Total energy for state 109:                  -438.64722825 au
    Multiplicity: Singlet
    Trans. Mom.: -0.0118 X   0.0072 Y  -0.0042 Z
    Strength   :     0.0028055661
    D(    4) --> V(  109) amplitude =  0.9254
    D(    4) --> V(  110) amplitude =  0.2488

 Excited state 110: excitation energy (eV) =     550.0559
 Total energy for state 110:                  -438.64281526 au
    Multiplicity: Singlet
    Trans. Mom.: -0.0065 X   0.0045 Y  -0.0027 Z
    Strength   :     0.0009402389
    D(    4) --> V(  109) amplitude = -0.2462
    D(    4) --> V(  110) amplitude =  0.8632

 Excited state 111: excitation energy (eV) =     550.6339
 Total energy for state 111:                  -438.62157523 au
    Multiplicity: Singlet
    Trans. Mom.:  0.0095 X  -0.0023 Y  -0.0036 Z
    Strength   :     0.0014631851
    D(    4) --> V(  111) amplitude =  0.9425

 Excited state 112: excitation energy (eV) =     551.0203
 Total energy for state 112:                  -438.60737537 au
    Multiplicity: Singlet
    Trans. Mom.:  0.0071 X   0.0038 Y  -0.0025 Z
    Strength   :     0.0009518282
    D(    4) --> V(  112) amplitude =  0.9122

 Excited state 113: excitation energy (eV) =     551.1497
 Total energy for state 113:                  -438.60261909 au
    Multiplicity: Singlet
    Trans. Mom.:  0.0189 X   0.0078 Y   0.0055 Z
    Strength   :     0.0060379695
    D(    4) --> V(  110) amplitude =  0.2914
    D(    4) --> V(  112) amplitude = -0.3044
    D(    4) --> V(  113) amplitude =  0.6452
    D(    4) --> V(  114) amplitude = -0.4783
    D(    4) --> V(  115) amplitude = -0.3551

 Excited state 114: excitation energy (eV) =     551.4616
 Total energy for state 114:                  -438.59115731 au
    Multiplicity: Singlet
    Trans. Mom.: -0.0089 X  -0.0003 Y  -0.0093 Z
    Strength   :     0.0022404997
    D(    4) --> V(  113) amplitude =  0.5770
    D(    4) --> V(  114) amplitude =  0.7885

 Excited state 115: excitation energy (eV) =     551.7642
 Total energy for state 115:                  -438.58003745 au
    Multiplicity: Singlet
    Trans. Mom.:  0.0007 X  -0.0069 Y   0.0022 Z
    Strength   :     0.0007090981
    D(    4) --> V(  113) amplitude =  0.3829
    D(    4) --> V(  114) amplitude = -0.2295
    D(    4) --> V(  115) amplitude =  0.8797

 Excited state 116: excitation energy (eV) =     552.2558
 Total energy for state 116:                  -438.56197284 au
    Multiplicity: Singlet
    Trans. Mom.: -0.0081 X  -0.0068 Y   0.0073 Z
    Strength   :     0.0022303554
    D(    4) --> V(  116) amplitude =  0.9065
    D(    4) --> V(  118) amplitude = -0.3183

 Excited state 117: excitation energy (eV) =     552.3165
 Total energy for state 117:                  -438.55974122 au
    Multiplicity: Singlet
    Trans. Mom.: -0.0055 X   0.0204 Y  -0.0004 Z
    Strength   :     0.0060565278
    D(    4) --> V(  117) amplitude =  0.8428
    D(    4) --> V(  119) amplitude = -0.3789

 Excited state 118: excitation energy (eV) =     552.7098
 Total energy for state 118:                  -438.54528795 au
    Multiplicity: Singlet
    Trans. Mom.:  0.0095 X   0.0014 Y   0.0023 Z
    Strength   :     0.0013094276
    D(    4) --> V(  116) amplitude =  0.3230
    D(    4) --> V(  117) amplitude =  0.2122
    D(    4) --> V(  118) amplitude =  0.8844

 Excited state 119: excitation energy (eV) =     552.9392
 Total energy for state 119:                  -438.53685793 au
    Multiplicity: Singlet
    Trans. Mom.: -0.0067 X  -0.0110 Y   0.0128 Z
    Strength   :     0.0044496308
    D(    4) --> V(  117) amplitude =  0.4063
    D(    4) --> V(  119) amplitude =  0.8746

 Excited state 120: excitation energy (eV) =     553.2272
 Total energy for state 120:                  -438.52627485 au
    Multiplicity: Singlet
    Trans. Mom.:  0.0006 X  -0.0067 Y   0.0002 Z
    Strength   :     0.0006186696
    D(    4) --> V(  120) amplitude =  0.9617

 Excited state 121: excitation energy (eV) =     553.7597
 Total energy for state 121:                  -438.50670307 au
    Multiplicity: Singlet
    Trans. Mom.:  0.0001 X  -0.0076 Y   0.0052 Z
    Strength   :     0.0011577878
    D(    4) --> V(  121) amplitude =  0.9632

 Excited state 122: excitation energy (eV) =     553.8818
 Total energy for state 122:                  -438.50221577 au
    Multiplicity: Singlet
    Trans. Mom.: -0.0057 X   0.0088 Y  -0.0150 Z
    Strength   :     0.0045469032
    D(    4) --> V(  122) amplitude =  0.7503
    D(    4) --> V(  123) amplitude =  0.5830

 Excited state 123: excitation energy (eV) =     554.1541
 Total energy for state 123:                  -438.49221106 au
    Multiplicity: Singlet
    Trans. Mom.:  0.0019 X   0.0014 Y  -0.0089 Z
    Strength   :     0.0011450815
    D(    4) --> V(  122) amplitude = -0.6177
    D(    4) --> V(  123) amplitude =  0.7569

 Excited state 124: excitation energy (eV) =     554.7895
 Total energy for state 124:                  -438.46885883 au
    Multiplicity: Singlet
    Trans. Mom.:  0.0076 X  -0.0067 Y   0.0202 Z
    Strength   :     0.0069171648
    D(    4) --> V(  124) amplitude = -0.3480
    D(    4) --> V(  125) amplitude =  0.7073
    D(    4) --> V(  126) amplitude =  0.2462
    D(    4) --> V(  127) amplitude = -0.4807

 Excited state 125: excitation energy (eV) =     554.8713
 Total energy for state 125:                  -438.46585401 au
    Multiplicity: Singlet
    Trans. Mom.:  0.0096 X   0.0078 Y  -0.0090 Z
    Strength   :     0.0031665199
    D(    4) --> V(  124) amplitude =  0.8624
    D(    4) --> V(  125) amplitude =  0.4283

 Excited state 126: excitation energy (eV) =     555.3445
 Total energy for state 126:                  -438.44846337 au
    Multiplicity: Singlet
    Trans. Mom.:  0.0010 X  -0.0034 Y   0.0063 Z
    Strength   :     0.0007078340
    D(    4) --> V(  125) amplitude = -0.5282
    D(    4) --> V(  126) amplitude =  0.6143
    D(    4) --> V(  127) amplitude = -0.5259

 Excited state 127: excitation energy (eV) =     555.5057
 Total energy for state 127:                  -438.44253850 au
    Multiplicity: Singlet
    Trans. Mom.: -0.0021 X   0.0038 Y  -0.0084 Z
    Strength   :     0.0012089309
    D(    4) --> V(  124) amplitude = -0.2496
    D(    4) --> V(  126) amplitude =  0.7073
    D(    4) --> V(  127) amplitude =  0.6409

 Excited state 128: excitation energy (eV) =     555.6637
 Total energy for state 128:                  -438.43673171 au
    Multiplicity: Singlet
    Trans. Mom.:  0.0014 X  -0.0037 Y  -0.0160 Z
    Strength   :     0.0036951436
    D(    4) --> V(  128) amplitude =  0.8884
    D(    4) --> V(  129) amplitude =  0.3561

 Excited state 129: excitation energy (eV) =     556.1037
 Total energy for state 129:                  -438.42056424 au
    Multiplicity: Singlet
    Trans. Mom.:  0.0071 X  -0.0002 Y  -0.0128 Z
    Strength   :     0.0029270139
    D(    4) --> V(  128) amplitude = -0.3956
    D(    4) --> V(  129) amplitude =  0.8686

 Excited state 130: excitation energy (eV) =     556.5798
 Total energy for state 130:                  -438.40306799 au
    Multiplicity: Singlet
    Trans. Mom.: -0.0047 X  -0.0071 Y  -0.0120 Z
    Strength   :     0.0029477686
    D(    4) --> V(  130) amplitude =  0.9682

 Excited state 131: excitation energy (eV) =     557.2048
 Total energy for state 131:                  -438.38010037 au
    Multiplicity: Singlet
    Trans. Mom.:  0.0085 X   0.0022 Y   0.0057 Z
    Strength   :     0.0014946769
    D(    4) --> V(  131) amplitude =  0.8977
    D(    4) --> V(  132) amplitude = -0.3644

 Excited state 132: excitation energy (eV) =     557.5219
 Total energy for state 132:                  -438.36844458 au
    Multiplicity: Singlet
    Trans. Mom.: -0.0045 X   0.0003 Y  -0.0087 Z
    Strength   :     0.0013147782
    D(    4) --> V(  131) amplitude =  0.3609
    D(    4) --> V(  132) amplitude =  0.8447
    D(    4) --> V(  133) amplitude =  0.3475

 Excited state 133: excitation energy (eV) =     557.8623
 Total energy for state 133:                  -438.35593680 au
    Multiplicity: Singlet
    Trans. Mom.:  0.0043 X  -0.0052 Y  -0.0140 Z
    Strength   :     0.0032861281
    D(    4) --> V(  132) amplitude = -0.3461
    D(    4) --> V(  133) amplitude =  0.8785

 Excited state 134: excitation energy (eV) =     558.1514
 Total energy for state 134:                  -438.34531107 au
    Multiplicity: Singlet
    Trans. Mom.:  0.0022 X   0.0065 Y   0.0005 Z
    Strength   :     0.0006415852
    D(    4) --> V(  134) amplitude =  0.9631

 Excited state 135: excitation energy (eV) =     558.5943
 Total energy for state 135:                  -438.32903586 au
    Multiplicity: Singlet
    Trans. Mom.:  0.0093 X   0.0078 Y  -0.0031 Z
    Strength   :     0.0021450012
    D(    4) --> V(  135) amplitude =  0.8721
    D(    4) --> V(  136) amplitude =  0.3984

 Excited state 136: excitation energy (eV) =     558.7577
 Total energy for state 136:                  -438.32303140 au
    Multiplicity: Singlet
    Trans. Mom.:  0.0035 X  -0.0039 Y   0.0004 Z
    Strength   :     0.0003815054
    D(    4) --> V(  135) amplitude = -0.3897
    D(    4) --> V(  136) amplitude =  0.8852

 Excited state 137: excitation energy (eV) =     559.1873
 Total energy for state 137:                  -438.30724366 au
    Multiplicity: Singlet
    Trans. Mom.:  0.0130 X  -0.0049 Y  -0.0024 Z
    Strength   :     0.0027376418
    D(    4) --> V(  137) amplitude =  0.9676

 Excited state 138: excitation energy (eV) =     559.4743
 Total energy for state 138:                  -438.29669475 au
    Multiplicity: Singlet
    Trans. Mom.:  0.0067 X   0.0023 Y   0.0089 Z
    Strength   :     0.0017835119
    D(    4) --> V(  138) amplitude =  0.9676

 Excited state 139: excitation energy (eV) =     559.9288
 Total energy for state 139:                  -438.27999494 au
    Multiplicity: Singlet
    Trans. Mom.: -0.0023 X   0.0016 Y  -0.0016 Z
    Strength   :     0.0001416985
    D(    4) --> V(  139) amplitude =  0.9860

 Excited state 140: excitation energy (eV) =     560.3300
 Total energy for state 140:                  -438.26524901 au
    Multiplicity: Singlet
    Trans. Mom.: -0.0014 X  -0.0121 Y  -0.0028 Z
    Strength   :     0.0021384877
    D(    4) --> V(  140) amplitude =  0.6074
    D(    4) --> V(  141) amplitude =  0.7414

 Excited state 141: excitation energy (eV) =     560.4062
 Total energy for state 141:                  -438.26244997 au
    Multiplicity: Singlet
    Trans. Mom.:  0.0026 X  -0.0010 Y   0.0040 Z
    Strength   :     0.0003316581
    D(    4) --> V(  140) amplitude =  0.7550
    D(    4) --> V(  141) amplitude = -0.6352

 Excited state 142: excitation energy (eV) =     560.5229
 Total energy for state 142:                  -438.25816146 au
    Multiplicity: Singlet
    Trans. Mom.: -0.0013 X   0.0005 Y   0.0110 Z
    Strength   :     0.0016796351
    D(    4) --> V(  142) amplitude =  0.9417

 Excited state 143: excitation energy (eV) =     560.7785
 Total energy for state 143:                  -438.24876979 au
    Multiplicity: Singlet
    Trans. Mom.: -0.0071 X   0.0044 Y   0.0147 Z
    Strength   :     0.0039297725
    D(    4) --> V(  143) amplitude =  0.9598

 Excited state 144: excitation energy (eV) =     561.3933
 Total energy for state 144:                  -438.22617470 au
    Multiplicity: Singlet
    Trans. Mom.: -0.0042 X  -0.0014 Y   0.0010 Z
    Strength   :     0.0002835485
    D(    4) --> V(  144) amplitude =  0.8315
    D(    4) --> V(  145) amplitude =  0.5041

 Excited state 145: excitation energy (eV) =     561.4674
 Total energy for state 145:                  -438.22345070 au
    Multiplicity: Singlet
    Trans. Mom.: -0.0002 X  -0.0022 Y  -0.0087 Z
    Strength   :     0.0011018778
    D(    4) --> V(  144) amplitude = -0.5155
    D(    4) --> V(  145) amplitude =  0.8402

 Excited state 146: excitation energy (eV) =     561.8097
 Total energy for state 146:                  -438.21087220 au
    Multiplicity: Singlet
    Trans. Mom.:  0.0017 X  -0.0086 Y  -0.0011 Z
    Strength   :     0.0010692758
    D(    4) --> V(  146) amplitude =  0.8961
    D(    4) --> V(  147) amplitude = -0.3113

 Excited state 147: excitation energy (eV) =     562.1130
 Total energy for state 147:                  -438.19972747 au
    Multiplicity: Singlet
    Trans. Mom.: -0.0118 X   0.0027 Y   0.0007 Z
    Strength   :     0.0020226736
    D(    4) --> V(  146) amplitude =  0.3623
    D(    4) --> V(  147) amplitude =  0.9065

 Excited state 148: excitation energy (eV) =     562.3655
 Total energy for state 148:                  -438.19044836 au
    Multiplicity: Singlet
    Trans. Mom.:  0.0036 X  -0.0023 Y   0.0065 Z
    Strength   :     0.0008236237
    D(    4) --> V(  147) amplitude =  0.2425
    D(    4) --> V(  148) amplitude =  0.9339

 Excited state 149: excitation energy (eV) =     562.7874
 Total energy for state 149:                  -438.17494280 au
    Multiplicity: Singlet
    Trans. Mom.: -0.0004 X   0.0004 Y   0.0019 Z
    Strength   :     0.0000543901
    D(    4) --> V(  149) amplitude =  0.9596

 Excited state 150: excitation energy (eV) =     563.0454
 Total energy for state 150:                  -438.16546017 au
    Multiplicity: Singlet
    Trans. Mom.: -0.0001 X  -0.0002 Y  -0.0020 Z
    Strength   :     0.0000567049
    D(    4) --> V(  150) amplitude =  0.9416
    D(    4) --> V(  151) amplitude =  0.2842

 ---------------------------------------------------
  SETman timing summary (seconds)
  CPU time            228967.43s
  System time              0.00s
  Wall time           229035.13s
================================================================================
                             Excited State Analysis
================================================================================

  Ground State (Reference) :
  -------------------------
    NOs
      Occupation of frontier NOs:
         0.0000   0.0000   2.0000   2.0000
      Number of electrons: 60.000000
      Number of unpaired electrons: n_u = -0.00000, n_u,nl =  0.00000
    
    Mulliken Population Analysis (State DM)
    Atom      Charge (e)
    --------------------
     1 O       -0.731319
     2 H        0.314145
     3 H        0.391390
     4 O       -0.642273
     5 H        0.346990
     6 H        0.287659
     7 O       -0.653965
     8 H        0.370052
     9 H        0.321602
    10 O       -0.750150
    11 H        0.333895
    12 H        0.397286
    13 O       -0.690396
    14 H        0.275901
    15 H        0.402945
    16 O       -0.609748
    17 H        0.330984
    18 H        0.305003
    --------------------
    Sum:       -0.000000
    
    Multipole moment analysis of the density matrix
      Molecular charge:                      -0.000000
      Number of electrons:                   60.000000
        Center of electronic charge [Ang]: [  0.000964,  -0.002828,  -0.000178]
      Total nuclear charge:                  60.000000
        Center of nuclear charge [Ang]:    [ -0.010157,  -0.008383,  -0.005033]
      Dipole moment [D]:                     3.846109
        Cartesian components [D]:          [ -3.204873,  -1.601084,  -1.399243]
      RMS size of the density [Ang]:         2.971438
        Cartesian components [Ang]:        [  1.904424,   1.846918,   1.338472]
    

  ----------------------------------------------------------------------------
                  Analysis of Unrelaxed Density Matrices
  ----------------------------------------------------------------------------

  Singlet 1 :
  -------------------------
    NOs
      Occupation of frontier NOs:
         0.0000   1.0000   1.0000   2.0000
      Number of electrons: 60.000000
      Number of unpaired electrons: n_u =  2.00000, n_u,nl =  2.00000
      NO participation ratio (PR_NO):  2.000000
    
    NDOs
      Leading detachment eigenvalues:
        -1.0000  -0.0000
      Leading attachment eigenvalues:
         1.0000   0.0000
      Number of detached / attached electrons: p_D =  1.0000, p_A =  1.0000
      Number of involved orbitals: PR_D =  1.000000, PR_A =  1.000000
    
    Mulliken Population Analysis (State/Difference DM)
    Atom      Charge (e)              h+              e-           Del q
    --------------------------------------------------------------------
     1 O        0.234767        0.991474       -0.025387        0.966087
     2 H        0.200563        0.004432       -0.118013       -0.113582
     3 H        0.271019        0.004093       -0.124464       -0.120371
     4 O       -0.637956       -0.000000        0.004318        0.004318
     5 H        0.316147        0.000001       -0.030845       -0.030843
     6 H        0.269020        0.000000       -0.018639       -0.018639
     7 O       -0.700711        0.000000       -0.046747       -0.046746
     8 H        0.341996        0.000000       -0.028056       -0.028055
     9 H        0.060273        0.000000       -0.261329       -0.261329
    10 O       -0.769812       -0.000001       -0.019662       -0.019662
    11 H        0.244936       -0.000000       -0.088959       -0.088959
    12 H        0.458930        0.000000        0.061643        0.061644
    13 O       -0.695637        0.000000       -0.005241       -0.005241
    14 H        0.266016        0.000000       -0.009885       -0.009885
    15 H        0.408645       -0.000000        0.005700        0.005700
    16 O       -0.572196       -0.000000        0.037553        0.037552
    17 H        0.248854        0.000001       -0.082131       -0.082130
    18 H        0.055145        0.000000       -0.249858       -0.249858
    --------------------------------------------------------------------
    Sum:        0.000000        1.000000       -1.000000        0.000000
    
    Multipole moment analysis of the density matrix
      Molecular charge:                      0.000000
      Number of electrons:                   60.000000
        Center of electronic charge [Ang]: [ -0.016438,   0.001263,  -0.015671]
      Total nuclear charge:                  60.000000
        Center of nuclear charge [Ang]:    [ -0.010157,  -0.008383,  -0.005033]
      Dipole moment [D]:                     4.516879
        Cartesian components [D]:          [  1.810125,  -2.779938,   3.065549]
      RMS size of the density [Ang]:         2.997796
        Cartesian components [Ang]:        [  1.923993,   1.861409,   1.349144]
    
    Exciton analysis of the difference density matrix
      <r_h> [Ang]:                  [ -0.544464,   0.150350,   0.807401]
      <r_e> [Ang]:                  [ -1.588558,   0.395781,  -0.122144]
      |<r_e - r_h>| [Ang]:            1.419303
      Hole size [Ang]:                0.122782
        Cartesian components [Ang]: [  0.070892,   0.070895,   0.070876]
      Electron size [Ang]:            2.785954
        Cartesian components [Ang]: [  1.512974,   1.759208,   1.541959]

  Singlet 2 :
  -------------------------
    NOs
      Occupation of frontier NOs:
         0.0000   1.0000   1.0000   2.0000
      Number of electrons: 60.000000
      Number of unpaired electrons: n_u =  2.00000, n_u,nl =  2.00000
      NO participation ratio (PR_NO):  2.000000
    
    NDOs
      Leading detachment eigenvalues:
        -1.0000  -0.0000
      Leading attachment eigenvalues:
         1.0000   0.0000
      Number of detached / attached electrons: p_D =  1.0000, p_A =  1.0000
      Number of involved orbitals: PR_D =  1.000000, PR_A =  1.000000
    
    Mulliken Population Analysis (State/Difference DM)
    Atom      Charge (e)              h+              e-           Del q
    --------------------------------------------------------------------
     1 O        0.246597        0.991474       -0.013558        0.977916
     2 H        0.318845        0.004432        0.000269        0.004700
     3 H        0.364386        0.004093       -0.031096       -0.027004
     4 O       -0.645209       -0.000000       -0.002935       -0.002936
     5 H        0.346481        0.000001       -0.000511       -0.000510
     6 H        0.284402        0.000000       -0.003257       -0.003257
     7 O       -0.606928        0.000000        0.047037        0.047037
     8 H        0.342426        0.000000       -0.027626       -0.027625
     9 H        0.266720        0.000000       -0.054882       -0.054882
    10 O       -0.786864       -0.000001       -0.036713       -0.036714
    11 H       -0.134167       -0.000000       -0.468062       -0.468062
    12 H        0.435831        0.000000        0.038545        0.038545
    13 O       -0.695591        0.000000       -0.005195       -0.005195
    14 H        0.193723        0.000000       -0.082178       -0.082178
    15 H        0.418635       -0.000000        0.015690        0.015690
    16 O       -0.538975       -0.000000        0.070773        0.070773
    17 H        0.165518        0.000001       -0.165467       -0.165467
    18 H        0.024171        0.000000       -0.280833       -0.280833
    --------------------------------------------------------------------
    Sum:       -0.000000        1.000000       -1.000000       -0.000000
    
    Multipole moment analysis of the density matrix
      Molecular charge:                      -0.000000
      Number of electrons:                   60.000000
        Center of electronic charge [Ang]: [ -0.008676,  -0.019701,  -0.014579]
      Total nuclear charge:                  60.000000
        Center of nuclear charge [Ang]:    [ -0.010157,  -0.008383,  -0.005033]
      Dipole moment [D]:                     4.288078
        Cartesian components [D]:          [ -0.426763,   3.261646,   2.750845]
      RMS size of the density [Ang]:         3.010952
        Cartesian components [Ang]:        [  1.924224,   1.883134,   1.347962]
    
    Exciton analysis of the difference density matrix
      <r_h> [Ang]:                  [ -0.544464,   0.150350,   0.807401]
      <r_e> [Ang]:                  [ -1.122851,  -0.862042,  -0.056624]
      |<r_e - r_h>| [Ang]:            1.451210
      Hole size [Ang]:                0.122782
        Cartesian components [Ang]: [  0.070892,   0.070895,   0.070876]
      Electron size [Ang]:            3.633457
        Cartesian components [Ang]: [  1.895647,   2.722583,   1.481914]

  Singlet 3 :
  -------------------------
    NOs
      Occupation of frontier NOs:
         0.0000   1.0000   1.0000   2.0000
      Number of electrons: 60.000000
      Number of unpaired electrons: n_u =  2.00000, n_u,nl =  2.00000
      NO participation ratio (PR_NO):  2.000000
    
    NDOs
      Leading detachment eigenvalues:
        -1.0000  -0.0000
      Leading attachment eigenvalues:
         1.0000   0.0000
      Number of detached / attached electrons: p_D =  1.0000, p_A =  1.0000
      Number of involved orbitals: PR_D =  1.000000, PR_A =  1.000000
    
    Mulliken Population Analysis (State/Difference DM)
    Atom      Charge (e)              h+              e-           Del q
    --------------------------------------------------------------------
     1 O        0.222748        0.991474       -0.037407        0.954067
     2 H        0.362190        0.004432        0.043614        0.048046
     3 H        0.243404        0.004093       -0.152079       -0.147987
     4 O       -0.650482       -0.000000       -0.008209       -0.008209
     5 H        0.279673        0.000001       -0.067319       -0.067317
     6 H        0.205153        0.000000       -0.082506       -0.082506
     7 O       -0.690353        0.000000       -0.036389       -0.036388
     8 H        0.415584        0.000000        0.045532        0.045532
     9 H       -0.136336        0.000000       -0.457938       -0.457938
    10 O       -0.725254       -0.000001        0.024896        0.024896
    11 H        0.287353       -0.000000       -0.046542       -0.046542
    12 H        0.396387        0.000000       -0.000899       -0.000899
    13 O       -0.682507        0.000000        0.007889        0.007889
    14 H        0.230522        0.000000       -0.045379       -0.045379
    15 H        0.388587       -0.000000       -0.014358       -0.014358
    16 O       -0.570828       -0.000000        0.038921        0.038921
    17 H        0.119697        0.000001       -0.211288       -0.211287
    18 H        0.304464        0.000000       -0.000540       -0.000540
    --------------------------------------------------------------------
    Sum:        0.000000        1.000000       -1.000000        0.000000
    
    Multipole moment analysis of the density matrix
      Molecular charge:                      0.000000
      Number of electrons:                   60.000000
        Center of electronic charge [Ang]: [ -0.003072,   0.000011,  -0.016562]
      Total nuclear charge:                  60.000000
        Center of nuclear charge [Ang]:    [ -0.010157,  -0.008383,  -0.005033]
      Dipole moment [D]:                     4.589091
        Cartesian components [D]:          [ -2.041668,  -2.419162,   3.322500]
      RMS size of the density [Ang]:         3.002137
        Cartesian components [Ang]:        [  1.921848,   1.862499,   1.360304]
    
    Exciton analysis of the difference density matrix
      <r_h> [Ang]:                  [ -0.544464,   0.150350,   0.807401]
      <r_e> [Ang]:                  [ -0.786637,   0.320670,  -0.175639]
      |<r_e - r_h>| [Ang]:            1.026657
      Hole size [Ang]:                0.122782
        Cartesian components [Ang]: [  0.070892,   0.070895,   0.070876]
      Electron size [Ang]:            3.354554
        Cartesian components [Ang]: [  1.919194,   1.841754,   2.043935]

  Singlet 4 :
  -------------------------
    NOs
      Occupation of frontier NOs:
         0.0000   1.0000   1.0000   2.0000
      Number of electrons: 60.000000
      Number of unpaired electrons: n_u =  2.00000, n_u,nl =  2.00000
      NO participation ratio (PR_NO):  2.000000
    
    NDOs
      Leading detachment eigenvalues:
        -1.0000  -0.0000
      Leading attachment eigenvalues:
         1.0000   0.0000
      Number of detached / attached electrons: p_D =  1.0000, p_A =  1.0000
      Number of involved orbitals: PR_D =  1.000000, PR_A =  1.000000
    
    Mulliken Population Analysis (State/Difference DM)
    Atom      Charge (e)              h+              e-           Del q
    --------------------------------------------------------------------
     1 O        0.198510        0.991474       -0.061644        0.929829
     2 H        0.331418        0.004432        0.012842        0.017274
     3 H        0.387018        0.004093       -0.008464       -0.004372
     4 O       -0.521826       -0.000000        0.120448        0.120447
[...]
 941  H 9   f 7      0.00024  -0.00037   0.00004   0.00097   0.00081
 942  H 9   g 1     -0.00001  -0.00001  -0.00001   0.00009   0.00009
 943  H 9   g 2      0.00002   0.00007  -0.00001  -0.00017   0.00020
 944  H 9   g 3     -0.00003   0.00002   0.00005  -0.00006  -0.00012
 945  H 9   g 4     -0.00001   0.00007  -0.00004  -0.00015  -0.00009
 946  H 9   g 5     -0.00001   0.00004   0.00001  -0.00012   0.00002
 947  H 9   g 6      0.00001  -0.00003   0.00002   0.00005  -0.00002
 948  H 9   g 7      0.00001   0.00005  -0.00002  -0.00010   0.00019
 949  H 9   g 8      0.00002  -0.00004  -0.00004   0.00015   0.00015
 950  H 9   g 9     -0.00002  -0.00004   0.00004   0.00005  -0.00018
 951  H 10  s       -0.00086   0.00242  -0.00151  -0.00077   0.00283
 952  H 10  s       -0.00500   0.00424  -0.00463   0.00140   0.00249
 953  H 10  s        0.04014   0.01601  -0.06278   0.00174   0.16235
 954  H 10  s        0.12824  -0.19485   0.04276   0.15059   0.11369
 955  H 10  s        0.02050  -0.03089  -0.07078   0.18525  -0.35045
 956  H 10  px       0.00051  -0.00136   0.00084   0.00038  -0.00061
 957  H 10  py      -0.00002   0.00010  -0.00001  -0.00016  -0.00020
 958  H 10  pz       0.00000  -0.00003  -0.00001   0.00010   0.00010
 959  H 10  px      -0.00124   0.00380  -0.00293  -0.00101   0.00045
 960  H 10  py      -0.00013  -0.00002  -0.00083   0.00075   0.00164
 961  H 10  pz       0.00009   0.00005  -0.00086   0.00011   0.00060
 962  H 10  px       0.03243  -0.03542   0.00443   0.01163   0.05068
 963  H 10  py       0.00180   0.00028   0.00090  -0.00082   0.01801
 964  H 10  pz      -0.00487   0.00862   0.00053  -0.00629   0.01324
 965  H 10  px       0.03452   0.01022  -0.01201  -0.01230   0.05866
 966  H 10  py       0.00881  -0.02674   0.02190   0.01443   0.05226
 967  H 10  pz      -0.01818   0.02914   0.01431  -0.04304  -0.00584
 968  H 10  d 1     -0.00003   0.00016   0.00004  -0.00033  -0.00065
 969  H 10  d 2      0.00005  -0.00006   0.00015  -0.00018   0.00002
 970  H 10  d 3     -0.00002   0.00016  -0.00005   0.00002   0.00018
 971  H 10  d 4      0.00015  -0.00045   0.00037   0.00017  -0.00054
 972  H 10  d 5     -0.00013  -0.00020   0.00025   0.00010  -0.00029
 973  H 10  d 1      0.00036  -0.00009  -0.00093   0.00152   0.00695
 974  H 10  d 2     -0.00022   0.00027  -0.00067   0.00070   0.00012
 975  H 10  d 3     -0.00108  -0.00058   0.00112  -0.00013  -0.00406
 976  H 10  d 4     -0.00129   0.00380  -0.00253  -0.00148   0.00529
 977  H 10  d 5      0.00250   0.00078  -0.00259  -0.00053   0.00663
 978  H 10  d 1      0.00314  -0.00535   0.01021  -0.00194   0.01508
 979  H 10  d 2     -0.00034   0.00264  -0.00161  -0.00192   0.00648
 980  H 10  d 3     -0.00748   0.01119  -0.00960   0.00073   0.00033
 981  H 10  d 4     -0.00616   0.00650   0.01263  -0.01362   0.00054
 982  H 10  d 5      0.01105  -0.01853   0.01869   0.00003  -0.00492
 983  H 10  f 1     -0.00001   0.00011  -0.00015  -0.00001   0.00028
 984  H 10  f 2      0.00004  -0.00019   0.00018  -0.00001  -0.00018
 985  H 10  f 3      0.00004  -0.00011   0.00008   0.00004  -0.00006
 986  H 10  f 4     -0.00003   0.00002  -0.00000  -0.00002  -0.00011
 987  H 10  f 5     -0.00017  -0.00006   0.00028  -0.00002  -0.00081
 988  H 10  f 6     -0.00000  -0.00001  -0.00004   0.00005   0.00012
 989  H 10  f 7      0.00017   0.00005  -0.00023  -0.00003   0.00090
 990  H 10  f 1      0.00077  -0.00087   0.00132   0.00045   0.00566
 991  H 10  f 2     -0.00032   0.00155  -0.00136  -0.00014   0.00162
 992  H 10  f 3     -0.00033   0.00051  -0.00040  -0.00033  -0.00183
 993  H 10  f 4      0.00137  -0.00265   0.00020   0.00216  -0.00210
 994  H 10  f 5     -0.00123   0.00173  -0.00225   0.00058   0.00161
 995  H 10  f 6     -0.00162   0.00358  -0.00042  -0.00285   0.00344
 996  H 10  f 7      0.00155  -0.00167   0.00198  -0.00065  -0.00199
 997  H 10  g 1      0.00006  -0.00004   0.00009   0.00004   0.00049
 998  H 10  g 2     -0.00001   0.00006  -0.00003  -0.00002  -0.00001
 999  H 10  g 3     -0.00002  -0.00002   0.00000  -0.00002  -0.00026
1000  H 10  g 4      0.00001  -0.00002   0.00001   0.00001   0.00002
1001  H 10  g 5      0.00008  -0.00007   0.00006  -0.00002   0.00004
1002  H 10  g 6      0.00014  -0.00029   0.00000   0.00024  -0.00022
1003  H 10  g 7     -0.00011   0.00011  -0.00012   0.00004   0.00002
1004  H 10  g 8     -0.00014   0.00031  -0.00006  -0.00020   0.00033
1005  H 10  g 9      0.00012  -0.00010   0.00012  -0.00007  -0.00003
1006  O 6   s       -0.00122  -0.00154  -0.00094  -0.00131   0.00012
1007  O 6   s        0.05163   0.05795   0.02622   0.04585  -0.00541
1008  O 6   s        0.00217   0.00228   0.00045   0.00120  -0.00039
1009  O 6   s        0.05035   0.05417   0.02029   0.04142  -0.00834
1010  O 6   s        0.08733   0.09192   0.09398   0.12727   0.04088
1011  O 6   s        0.36596   0.49073   0.29007   0.58068   0.04339
1012  O 6   px       0.01711   0.01446   0.01788   0.00702   0.00686
1013  O 6   py       0.00260   0.01284   0.00611   0.00978  -0.00608
1014  O 6   pz      -0.02202  -0.02058   0.00668  -0.01432   0.01081
1015  O 6   px       0.02684   0.02220   0.02670   0.01013   0.00974
1016  O 6   py       0.00220   0.01992   0.00956   0.01507  -0.01035
1017  O 6   pz      -0.03643  -0.03313   0.01170  -0.02150   0.01720
1018  O 6   px       0.04397   0.03592   0.05716   0.02057   0.02910
1019  O 6   py       0.00830   0.03059   0.01709   0.02701  -0.01152
1020  O 6   pz      -0.04787  -0.04496   0.01807  -0.04064   0.02816
1021  O 6   px       0.12707   0.13892   0.10852   0.09154   0.03244
1022  O 6   py       0.00240   0.03927   0.04929   0.06583   0.00610
1023  O 6   pz      -0.08865  -0.10830  -0.02438  -0.08566   0.04093
1024  O 6   px      -0.02441  -0.03062   0.10818   0.03197   0.12328
1025  O 6   py       0.04815   0.04787   0.01095   0.05184  -0.01689
1026  O 6   pz      -0.06229  -0.07069   0.09253  -0.11138   0.08914
1027  O 6   d 1      0.00004   0.00012   0.00005   0.00005  -0.00005
1028  O 6   d 2     -0.00003  -0.00016  -0.00016  -0.00006   0.00002
1029  O 6   d 3      0.00014   0.00015   0.00011   0.00002   0.00000
1030  O 6   d 4     -0.00007  -0.00001  -0.00003   0.00011  -0.00001
1031  O 6   d 5      0.00035   0.00040   0.00008   0.00013  -0.00013
1032  O 6   d 1      0.00009  -0.00031  -0.00013  -0.00004   0.00012
1033  O 6   d 2     -0.00014   0.00080   0.00105   0.00071  -0.00016
1034  O 6   d 3     -0.00093  -0.00145  -0.00046  -0.00085   0.00059
1035  O 6   d 4     -0.00093  -0.00154  -0.00059  -0.00201   0.00016
1036  O 6   d 5     -0.00175  -0.00252  -0.00095  -0.00112   0.00064
1037  O 6   d 1      0.00222   0.00244   0.00360   0.00121   0.00208
1038  O 6   d 2      0.00047  -0.00336  -0.00461  -0.00515   0.00074
1039  O 6   d 3      0.00284   0.00430  -0.00102   0.00482  -0.00525
1040  O 6   d 4      0.00129   0.00340   0.00259   0.00848   0.00180
1041  O 6   d 5      0.01115   0.01279   0.00888   0.00680   0.00195
1042  O 6   d 1      0.01654   0.00536   0.00751   0.00053   0.00757
1043  O 6   d 2     -0.00980  -0.01755  -0.01267  -0.02355   0.00299
1044  O 6   d 3      0.01699   0.02240  -0.01078   0.02012  -0.02411
1045  O 6   d 4      0.00082   0.00192   0.00084   0.02107   0.00902
1046  O 6   d 5      0.01791   0.02487   0.02397   0.02166   0.01071
1047  O 6   f 1      0.00011   0.00006  -0.00005   0.00001  -0.00005
1048  O 6   f 2     -0.00008  -0.00007  -0.00009  -0.00008  -0.00006
1049  O 6   f 3      0.00007   0.00003  -0.00002  -0.00004   0.00002
1050  O 6   f 4      0.00012   0.00019   0.00009   0.00015  -0.00008
1051  O 6   f 5      0.00001   0.00001   0.00017   0.00001   0.00013
1052  O 6   f 6     -0.00011  -0.00017  -0.00002  -0.00016   0.00009
1053  O 6   f 7     -0.00008  -0.00011  -0.00004  -0.00008  -0.00001
1054  O 6   f 1     -0.00027  -0.00005   0.00069   0.00016   0.00050
1055  O 6   f 2      0.00019   0.00024   0.00048   0.00046   0.00034
1056  O 6   f 3     -0.00028  -0.00002   0.00008   0.00053  -0.00028
1057  O 6   f 4     -0.00094  -0.00109  -0.00066  -0.00108   0.00032
1058  O 6   f 5     -0.00028  -0.00027  -0.00103  -0.00034  -0.00077
1059  O 6   f 6      0.00048   0.00085   0.00058   0.00093  -0.00018
1060  O 6   f 7      0.00077   0.00080   0.00077   0.00064   0.00043
1061  O 6   f 1      0.00538   0.00346   0.00430   0.00176   0.00307
1062  O 6   f 2     -0.00176  -0.00080   0.00038   0.00371   0.00224
1063  O 6   f 3      0.00569   0.01037   0.00401   0.01072  -0.00339
1064  O 6   f 4     -0.01477  -0.01772  -0.00255  -0.01254   0.00590
1065  O 6   f 5     -0.00118  -0.00358  -0.00825  -0.00634  -0.00681
1066  O 6   f 6      0.00514   0.00764   0.00252   0.00898  -0.00133
1067  O 6   f 7      0.00650   0.01056   0.00797   0.00753  -0.00004
1068  O 6   g 1     -0.00001   0.00002   0.00002   0.00001  -0.00000
1069  O 6   g 2      0.00002   0.00001   0.00006  -0.00001   0.00002
1070  O 6   g 3     -0.00007  -0.00007   0.00004  -0.00002   0.00007
1071  O 6   g 4      0.00006   0.00009   0.00002   0.00004  -0.00001
1072  O 6   g 5     -0.00007  -0.00008  -0.00001   0.00003   0.00002
1073  O 6   g 6      0.00007   0.00008  -0.00011   0.00002  -0.00014
1074  O 6   g 7     -0.00002   0.00002   0.00002  -0.00000   0.00001
1075  O 6   g 8     -0.00007  -0.00007   0.00007  -0.00006   0.00006
1076  O 6   g 9     -0.00001  -0.00005   0.00002  -0.00003   0.00006
1077  O 6   g 1      0.00072   0.00063   0.00100   0.00047   0.00059
1078  O 6   g 2      0.00029   0.00055   0.00014   0.00076  -0.00005
1079  O 6   g 3      0.00053   0.00046  -0.00083  -0.00023  -0.00103
1080  O 6   g 4     -0.00146  -0.00221  -0.00085  -0.00198   0.00053
1081  O 6   g 5      0.00206   0.00227   0.00088   0.00074  -0.00041
1082  O 6   g 6     -0.00157  -0.00173   0.00025  -0.00069   0.00121
1083  O 6   g 7     -0.00064  -0.00136  -0.00141  -0.00098  -0.00022
1084  O 6   g 8      0.00131   0.00137  -0.00005   0.00098  -0.00055
1085  O 6   g 9      0.00104   0.00161   0.00082   0.00101  -0.00037
1086  O 6   h 1      0.00013   0.00015   0.00019   0.00009   0.00007
1087  O 6   h 2      0.00010   0.00012   0.00004   0.00010  -0.00001
1088  O 6   h 3     -0.00004  -0.00007  -0.00012  -0.00003  -0.00005
1089  O 6   h 4     -0.00014  -0.00012   0.00004   0.00001   0.00010
1090  O 6   h 5      0.00027   0.00035   0.00011   0.00025  -0.00009
1091  O 6   h 6     -0.00013  -0.00009   0.00007   0.00004   0.00009
1092  O 6   h 7      0.00008   0.00009   0.00007  -0.00009  -0.00004
1093  O 6   h 8     -0.00009  -0.00003  -0.00000   0.00002  -0.00004
1094  O 6   h 9     -0.00011  -0.00011  -0.00009   0.00003   0.00000
1095  O 6   h10      0.00016   0.00016   0.00002   0.00013  -0.00004
1096  O 6   h11      0.00014   0.00020   0.00008   0.00011  -0.00007
1097  H 11  s       -0.00250  -0.00382  -0.00341  -0.00332  -0.00045
1098  H 11  s       -0.00376  -0.00655   0.00060  -0.00417   0.00413
1099  H 11  s       -0.12122  -0.15863  -0.15205  -0.12824  -0.04655
1100  H 11  s        0.00970   0.03011  -0.03618  -0.12787  -0.13901
1101  H 11  s       -0.16876  -0.30754  -0.66243  -0.14759  -0.24005
1102  H 11  px      -0.00131  -0.00154  -0.00162  -0.00100  -0.00036
1103  H 11  py      -0.00034  -0.00056  -0.00059  -0.00035  -0.00003
1104  H 11  pz      -0.00028  -0.00034  -0.00035  -0.00022  -0.00011
1105  H 11  px       0.00159   0.00253   0.00141   0.00115  -0.00068
1106  H 11  py       0.00046   0.00137   0.00134   0.00092  -0.00032
1107  H 11  pz      -0.00062  -0.00052   0.00017  -0.00039   0.00038
1108  H 11  px       0.01534   0.01786   0.01749   0.02104   0.01430
1109  H 11  py       0.00653   0.01038   0.00314   0.00905  -0.00159
1110  H 11  pz       0.00020   0.00094   0.01244  -0.00339   0.00743
1111  H 11  px      -0.01044  -0.01735   0.00784   0.04069   0.04678
1112  H 11  py       0.00126   0.02005   0.02803   0.02762   0.01120
1113  H 11  pz       0.00417   0.00716   0.01617   0.01143   0.01877
1114  H 11  d 1      0.00023   0.00021   0.00012   0.00021   0.00005
1115  H 11  d 2     -0.00018  -0.00014  -0.00001  -0.00014  -0.00014
1116  H 11  d 3     -0.00007  -0.00001  -0.00005  -0.00007  -0.00011
1117  H 11  d 4      0.00006  -0.00002   0.00024  -0.00015   0.00023
1118  H 11  d 5      0.00003   0.00006   0.00042   0.00013   0.00026
1119  H 11  d 1     -0.00301  -0.00406  -0.00201  -0.00309   0.00027
1120  H 11  d 2      0.00073   0.00030  -0.00046   0.00051   0.00046
1121  H 11  d 3      0.00231   0.00256   0.00151   0.00240   0.00060
1122  H 11  d 4      0.00006   0.00008  -0.00347   0.00112  -0.00265
1123  H 11  d 5     -0.00266  -0.00323  -0.00454  -0.00280  -0.00236
1124  H 11  d 1      0.00057  -0.00565  -0.00497  -0.00608   0.00060
1125  H 11  d 2     -0.00001  -0.00091  -0.00428   0.00000  -0.00410
1126  H 11  d 3     -0.00358  -0.00548   0.00042   0.00031   0.00528
1127  H 11  d 4      0.00544   0.00599  -0.00596   0.00422  -0.00862
1128  H 11  d 5      0.00530   0.01209   0.00350   0.00194  -0.00909
1129  H 11  f 1      0.00038   0.00044   0.00022   0.00027   0.00001
1130  H 11  f 2      0.00019   0.00018   0.00002   0.00012  -0.00003
1131  H 11  f 3     -0.00012  -0.00016  -0.00010  -0.00008   0.00000
1132  H 11  f 4     -0.00007  -0.00016  -0.00018  -0.00013   0.00002
1133  H 11  f 5     -0.00036  -0.00045  -0.00013  -0.00039   0.00005
1134  H 11  f 6      0.00021   0.00029   0.00032   0.00014   0.00012
1135  H 11  f 7      0.00039   0.00054   0.00045   0.00036   0.00009
1136  H 11  f 1      0.00023   0.00094   0.00095   0.00127  -0.00006
1137  H 11  f 2     -0.00095  -0.00020   0.00149  -0.00051   0.00088
1138  H 11  f 3     -0.00040  -0.00053   0.00019  -0.00080   0.00030
1139  H 11  f 4      0.00101   0.00158  -0.00129   0.00166  -0.00218
1140  H 11  f 5      0.00038   0.00077   0.00013  -0.00034  -0.00062
1141  H 11  f 6     -0.00178  -0.00266   0.00079  -0.00215   0.00211
1142  H 11  f 7     -0.00208  -0.00379  -0.00090  -0.00146   0.00197
1143  H 11  g 1     -0.00005  -0.00008  -0.00011  -0.00012  -0.00003
1144  H 11  g 2     -0.00001  -0.00006  -0.00014   0.00001  -0.00005
1145  H 11  g 3      0.00011   0.00012  -0.00002   0.00012  -0.00006
1146  H 11  g 4      0.00000   0.00000   0.00002   0.00000   0.00004
1147  H 11  g 5     -0.00007  -0.00008   0.00004  -0.00013   0.00005
1148  H 11  g 6     -0.00008  -0.00011   0.00017  -0.00013   0.00019
1149  H 11  g 7      0.00003   0.00004  -0.00001   0.00011   0.00000
1150  H 11  g 8      0.00011   0.00019  -0.00007   0.00015  -0.00017
1151  H 11  g 9      0.00014   0.00023   0.00001   0.00008  -0.00015
1152  H 12  s       -0.00361  -0.00537  -0.00108  -0.00514   0.00207
1153  H 12  s       -0.00612  -0.00902  -0.00121  -0.00486   0.00233
1154  H 12  s       -0.12064  -0.18227  -0.06112  -0.17784   0.06340
1155  H 12  s        0.04746   0.06144   0.01609  -0.07743  -0.02928
1156  H 12  s       -0.55577  -0.67784   0.18806  -0.53331   0.47227
1157  H 12  px       0.00013  -0.00003  -0.00007  -0.00009   0.00009
1158  H 12  py      -0.00084  -0.00082   0.00011  -0.00051   0.00031
1159  H 12  pz       0.00164   0.00211   0.00025   0.00172  -0.00088
1160  H 12  px       0.00050   0.00135   0.00121   0.00098  -0.00068
1161  H 12  py       0.00155   0.00145  -0.00061   0.00031  -0.00038
1162  H 12  pz      -0.00164  -0.00312  -0.00100  -0.00203   0.00142
1163  H 12  px      -0.00646  -0.00874   0.00122   0.00047   0.01022
1164  H 12  py       0.00247   0.00589   0.00588   0.00646  -0.00233
1165  H 12  pz       0.00203  -0.00579  -0.01563  -0.01929  -0.00232
1166  H 12  px      -0.01727  -0.00536  -0.00148   0.02721   0.00734
1167  H 12  py       0.01346   0.00258  -0.02595  -0.00273  -0.01017
1168  H 12  pz       0.03342   0.03130  -0.01613  -0.02523  -0.01485
1169  H 12  d 1      0.00008  -0.00002   0.00005  -0.00004   0.00009
1170  H 12  d 2     -0.00032  -0.00018   0.00011  -0.00015   0.00010
1171  H 12  d 3      0.00002   0.00013   0.00008   0.00033  -0.00011
1172  H 12  d 4      0.00028   0.00020  -0.00016  -0.00003  -0.00023
1173  H 12  d 5     -0.00011  -0.00012  -0.00013   0.00008   0.00006
1174  H 12  d 1     -0.00015   0.00023  -0.00064   0.00010  -0.00077
1175  H 12  d 2      0.00274   0.00326   0.00097   0.00274  -0.00134
1176  H 12  d 3     -0.00110  -0.00317  -0.00212  -0.00469   0.00137
1177  H 12  d 4     -0.00151  -0.00132   0.00187   0.00020   0.00237
1178  H 12  d 5      0.00079   0.00098   0.00078  -0.00003  -0.00043
1179  H 12  d 1      0.00291   0.00169  -0.00162  -0.00365  -0.00408
1180  H 12  d 2     -0.00212  -0.00453  -0.00409  -0.00280  -0.00103
1181  H 12  d 3      0.01642   0.01885  -0.00023   0.00049  -0.00884
1182  H 12  d 4     -0.00530  -0.00426  -0.00127   0.00803   0.00606
1183  H 12  d 5      0.00001  -0.00139  -0.00564   0.00033  -0.00109
1184  H 12  f 1     -0.00004  -0.00002  -0.00005   0.00000  -0.00001
1185  H 12  f 2      0.00008   0.00008   0.00002   0.00008  -0.00002
1186  H 12  f 3      0.00040   0.00069   0.00041   0.00056  -0.00022
1187  H 12  f 4     -0.00038  -0.00060  -0.00027  -0.00045   0.00018
1188  H 12  f 5     -0.00007  -0.00019   0.00007  -0.00020   0.00020
1189  H 12  f 6     -0.00000   0.00005   0.00019   0.00007   0.00006
1190  H 12  f 7     -0.00003  -0.00008  -0.00003  -0.00005   0.00005
1191  H 12  f 1     -0.00016  -0.00020   0.00024  -0.00017   0.00005
1192  H 12  f 2      0.00053   0.00048  -0.00088  -0.00118  -0.00157
1193  H 12  f 3     -0.00105  -0.00243  -0.00170  -0.00114   0.00027
1194  H 12  f 4      0.00445   0.00458   0.00018  -0.00006  -0.00168
1195  H 12  f 5     -0.00120  -0.00036   0.00088   0.00240   0.00137
1196  H 12  f 6      0.00081   0.00046  -0.00127   0.00008  -0.00082
1197  H 12  f 7      0.00025   0.00040  -0.00025  -0.00003  -0.00066
1198  H 12  g 1      0.00001   0.00001   0.00003   0.00001   0.00001
1199  H 12  g 2     -0.00004  -0.00003  -0.00001  -0.00001  -0.00001
1200  H 12  g 3      0.00007   0.00006  -0.00006  -0.00013  -0.00014
1201  H 12  g 4     -0.00003  -0.00007  -0.00002   0.00007  -0.00001
1202  H 12  g 5      0.00028   0.00023  -0.00005  -0.00010  -0.00011
1203  H 12  g 6     -0.00009  -0.00006   0.00009   0.00014   0.00015
1204  H 12  g 7      0.00007   0.00006  -0.00006   0.00005  -0.00006
1205  H 12  g 8      0.00005   0.00004  -0.00005  -0.00003  -0.00007
1206  H 12  g 9      0.00000   0.00002   0.00000   0.00001  -0.00002

 -----------------------------------------------------------------
                    Cartesian Multipole Moments
 -----------------------------------------------------------------
    Charge (ESU x 10^10)
                -0.0000
    Dipole Moment (Debye)
         X      -3.2049      Y      -1.6011      Z      -1.3992
       Tot       3.8461
    Quadrupole Moments (Debye-Ang)
        XX     -46.2109     XY       4.9576     YY     -33.1081
        XZ       6.3374     YZ       3.4634     ZZ     -44.7090
    Octopole Moments (Debye-Ang^2)
       XXX       1.5449    XXY       9.5484    XYY      -0.7680
       YYY     -37.6279    XXZ     -32.0714    XYZ      23.5491
       YYZ      -9.5704    XZZ      14.2902    YZZ      -0.8199
       ZZZ      12.7961
    Hexadecapole Moments (Debye-Ang^3)
      XXXX   -1029.9003   XXXY     237.7313   XXYY    -231.6673
      XYYY     172.3894   YYYY    -733.1058   XXXZ     147.2845
      XXYZ     -30.9237   XYYZ      32.4539   YYYZ    -100.3942
      XXZZ    -244.7582   XYZZ      85.3880   YYZZ    -198.4526
      XZZZ      78.0041   YZZZ    -146.8008   ZZZZ    -502.0489
 -----------------------------------------------------------------
 Total job time:  230394.01s(wall), 230232.20s(cpu) 
 Fri Jan 24 07:14:39 2025

        *************************************************************
        *                                                           *
        *  Thank you very much for using Q-Chem.  Have a nice day.  *
        *                                                           *
        *************************************************************


