                  Welcome to Q-Chem
     A Quantum Leap Into The Future Of Chemistry


 Q-Chem 6.2 (devel), Q-Chem, Inc., Pleasanton, CA (2024)

 E. Epifanovsky,  A. T. B. Gilbert,  Xintian Feng,  Joonho Lee,  Yuezhi Mao,  
 N. Mardirossian,  P. Pokhilko,  A. White,  M. Wormit,  M. P. Coons,  
 A. L. Dempwolff,  Zhengting Gan,  D. Hait,  P. R. Horn,  L. D. Jacobson,  
 I. Kaliman,  J. Kussmann,  A. W. Lange,  Ka Un Lao,  D. S. Levine,  Jie Liu,  
 S. C. McKenzie,  A. F. Morrison,  K. D. Nanda,  F. Plasser,  D. R. Rehn,  
 M. L. Vidal,  Zhi-Qiang You,  Ying Zhu,  Huseyin Aksu,  B. Alam,  
 B. Albrecht,  A. Aldossary,  E. Alguire,  J. H. Andersen,  
 J. E. Arias-Martinez,  V. Athavale,  D. Barton,  K. Begam,  A. Behn,  
 N. Bellonzi,  Y. A. Bernard,  E. J. Berquist,  H. Burton,  A. Carreras,  
 K. Carter-Fenk,  Mathew Chow,  Romit Chakraborty,  Chandrima Chakravarty,  
 Junhan Chen,  A. D. Chien,  K. D. Closser,  V. Cofer-Shabica,  L. Cunha,  
 S. Dasgupta,  Jia Deng,  Joseph Dickinson,  M. de Wergifosse,  
 M. Diedenhofen,  Hainam Do,  Wenjie Dou,  S. Ehlert,  Po-Tung Fang,  
 S. Fatehi,  Qingguo Feng,  Jonathan Fetherolf,  T. Friedhoff,  
 Thomas Froitzheim,  Sarai Folkestad,  B. Ganoe,  J. Gayvert,  Qinghui Ge,  
 G. Gidofalvi,  M. Gimferrer,  M. Goldey,  Montgomery Gray,  J. Gomes,  
 C. Gonzalez-Espinoza,  S. Gulania,  A. Gunina,  J. A. Gyamfi,  
 M. W. D. Hanson-Heine,  P. H. P. Harbach,  A. W. Hauser,  M. F. Herbst,  
 M. Hernandez Vera,  M. Hodecker,  Z. C. Holden,  S. Houck,  Xunkun Huang,  
 Kerwin Hui,  B. C. Huynh,  K. Ikeda,  M. Ivanov,  Nayanthara K. Jayadev,  
 Hyunjun Ji,  Zuxin Jin,  Hanjie Jiang,  Subrata Jana,  B. Kaduk,  
 S. Kaehler,  R. Kang,  K. Khistyaev,  Jaehoon Kim,  Yongbin Kim,  
 P. Klunzinger,  Z. Koczor-Benda,  Joong Hoon Koh,  D. Kosenkov,  
 Saikiran Kotaru,  L. Koulias,  T. Kowalczyk,  C. M. Krauter,  K. Kue,  
 A. Kunitsa,  T. Kus,  A. Landau,  K. V. Lawler,  D. Lefrancois,  S. Lehtola,  
 Rain Li,  Shaozhi Li,  Tao E. Li,  Yi-Pei Li,  Jiashu Liang,  M. Liebenthal,  
 Hung-Hsuan Lin,  You-Sheng Lin,  Fenglai Liu,  Kuan-Yu Liu,  Xiao Liu,  
 M. Loipersberger,  A. Luenser,  C. Malbon,  Aniket Mandal,  Manisha,  
 A. Manjanath,  P. Manohar,  E. Mansoor,  S. F. Manzer,  Shan-Ping Mao,  
 A. V. Marenich,  T. Markovich,  S. Mason,  F. Matz,  S. A. Maurer,  
 Samuel May,  Alexandra McIsaac,  P. F. McLaughlin,  M. F. S. J. Menger,  
 J.-M. Mewes,  S. A. Mewes,  P. Morgante,  Mohammad Mostafanejad,  
 Madhubani Mukherjee,  J. W. Mullinax,  Quyen Nguyen,  Avik Kumar Ojha,  
 K. J. Oosterbaan,  Eno Paenurk,  Xiaoliang Pan,  G. Paran,  V. Parravicini,  
 Alexander C. Paul,  Suranjan K. Paul,  F. Pavosevic,  Zheng Pei,  S. Prager,  
 E. I. Proynov,  E. Ramos,  B. Rana,  A. E. Rask,  A. Rettig,  R. M. Richard,  
 F. Rob,  E. Rossomme,  T. Scheele,  M. Scheurer,  M. Schneider,  
 P. E. Schneider,  Tim K. Schramm,  N. Sergueev,  S. M. Sharada,  
 Hengyuan Shen,  W. Skomorowski,  D. W. Small,  C. J. Stein,  
 Alistair J. Sterling,  Yingli Su,  Yu-Chuan Su,  E. J. Sundstrom,  
 J. Talbot,  Zhen Tao,  J. Thirman,  Hung-Yi Tsai,  T. Tsuchimochi,  
 N. M. Tubman,  C. Utku,  S. P. Veccham,  O. Vydrov,  Rahel Weiss,  
 J. Wenzel,  Jonathan Wong,  J. Witte,  H. Wu,  Yanze Wu,  A. Yamada,  
 Chou-Hsun Yang,  Kun Yao,  S. Yeganeh,  S. R. Yost,  Qi Yu,  A. Zech,  
 F. Zeller,  Chongxiao Zhao,  Igor Ying Zhang,  Xing Zhang,  Yu Zhang,  
 D. Zuev,  A. Aspuru-Guzik,  A. T. Bell,  N. A. Besley,  K. B. Bravaya,  
 B. R. Brooks,  D. Casanova,  Jeng-Da Chai,  Hsing-Ta Chen,  S. Coriani,  
 C. J. Cramer,  A. E. DePrince, III,  R. A. DiStasio Jr.,  A. Dreuw,  
 B. D. Dunietz,  T. R. Furlani,  W. A. Goddard III,  S. Grimme,  
 S. Hammes-Schiffer,  T. Head-Gordon,  W. J. Hehre,  Chao-Ping Hsu,  
 T.-C. Jagau,  Yousung Jung,  A. Klamt,  Jing Kong,  D. S. Lambrecht,  
 Xiangyuan Li,  WanZhen Liang,  N. J. Mayhall,  C. W. McCurdy,  J. B. Neaton,  
 T. Neudecker,  C. Ochsenfeld,  J. A. Parkhill,  R. Peverati,  
 V. A. Rassolov,  Haisheng Ren,  Yihan Shao,  L. V. Slipchenko,  
 R. P. Steele,  J. E. Subotnik,  A. J. W. Thom,  A. Tkatchenko,  
 D. G. Truhlar,  T. Van Voorhis,  Fan Wang,  T. A. Wesolowski,  K. B. Whaley,  
 H. L. Woodcock III,  P. M. Zimmerman,  S. Faraji,  P. M. W. Gill,  
 M. Head-Gordon,  J. M. Herbert,  A. I. Krylov

 Contributors to earlier versions of Q-Chem not listed above: 
 R. D. Adamson,  B. Austin,  R. Baer,  J. Baker,  G. J. O. Beran,  
 K. Brandhorst,  S. T. Brown,  E. F. C. Byrd,  Arup K. Chakraborty,  
 G. K. L. Chan,  Chun-Min Chang,  Yunqing Chen,  C.-L. Cheng,  
 Siu Hung Chien,  D. M. Chipman,  D. L. Crittenden,  H. Dachsel,  
 R. J. Doerksen,  A. D. Dutoi,  R. G. Edgar,  J. Fosso-Tande,  
 L. Fusti-Molnar,  D. Ghosh,  A. Ghysels,  A. Golubeva-Zadorozhnaya,  
 J. Gonthier,  M. S. Gordon,  S. R. Gwaltney,  G. Hawkins,  J. E. Herr,  
 A. Heyden,  S. Hirata,  E. G. Hohenstein,  G. Kedziora,  F. J. Keil,  
 C. Kelley,  Jihan Kim,  R. A. King,  R. Z. Khaliullin,  P. P. Korambath,  
 W. Kurlancheek,  A. Laurent,  A. M. Lee,  M. S. Lee,  S. V. Levchenko,  
 Ching Yeh Lin,  D. Liotard,  E. Livshits,  R. C. Lochan,  I. Lotan,  
 L. A. Martinez-Martinez,  P. E. Maslen,  N. Nair,  D. P. O'Neill,  
 D. Neuhauser,  E. Neuscamman,  C. M. Oana,  R. Olivares-Amaya,  R. Olson,  
 T. M. Perrine,  B. Peters,  P. A. Pieniazek,  A. Prociuk,  Y. M. Rhee,  
 J. Ritchie,  M. A. Rohrdanz,  E. Rosta,  N. J. Russ,  H. F. Schaefer III,  
 M. W. Schmidt,  N. E. Schultz,  S. Sharma,  N. Shenvi,  C. D. Sherrill,  
 A. C. Simmonett,  A. Sodt,  T. Stein,  D. Stuck,  K. S. Thanthiriwatte,  
 V. Vanovschi,  L. Vogt,  Tao Wang,  A. Warshel,  M. A. Watson,  
 C. F. Williams,  Q. Wu,  X. Xu,  Jun Yang,  W. Zhang,  Yan Zhao

   Please cite Q-Chem as follows:
  "Software for the frontiers of quantum chemistry:
   An overview of developments in the Q-Chem 5 package"
   J. Chem. Phys. 155, 084801 (2021)
   https://doi.org/10.1063/5.0055522 (open access)

 Q-Chem 6.2.2 for Intel X86 EM64T Linux

 Parts of Q-Chem use Armadillo 9.900.5 (Nocturnal Misbehaviour).
 http://arma.sourceforge.net/

 Q-Chem begins on Thu Jan  9 13:27:36 2025  

 Host: compute-0-12.local
0

     Scratch files written to /scratch/keith/A2D0_1//
 Processing $rem in /home/keith/software/qchem/qchem_622/config/preferences:
 Processing $rem in /home/keith/.qchemrc:

 Checking the input file for inconsistencies... 	...done.

--------------------------------------------------------------
User input:
--------------------------------------------------------------
$molecule
read
$end

$rem
method                    b3lyp 
basis                     cc-pv5z 
mem_total                 63000
mem_static                8000
thresh                    12
scf_convergence           8
xc_grid                   000075000302
max_scf_cycles            2000
symmetry                  false
sym_ignore                true
scf_guess                 read
skip_scfman               true
cis_n_roots               150
cis_triplets              false
rpa                       false 
trnss                     true
trtype                    3
n_sol                     1
nto_pairs                 2
gui                       2
print_orbitals            true
state_analysis            true
$end

$solute 
4 
$end
--------------------------------------------------------------
 ----------------------------------------------------------------
             Standard Nuclear Orientation (Angstroms)
    I     Atom           X                Y                Z
 ----------------------------------------------------------------
    1      O      -0.1553800000    -0.1739600000    -0.0543100000
    2      H       0.2076200000    -0.9729600000    -0.4729100000
    3      H       0.5746200000     0.4263400000    -0.1533100000
    4      O      -0.0463800000     3.6140400000    -0.4712100000
    5      H      -0.2873800000     2.9556400000    -1.1213100000
    6      H       0.9096200000     3.4011400000    -0.2563100000
    7      O      -2.2163800000    -3.6506600000    -0.9005100000
    8      H      -1.4343800000    -3.1768600000    -0.8980100000
    9      H      -2.0343800000    -4.5526600000    -1.1941100000
   10      O      -2.4893800000     0.5007400000    -1.8100100000
   11      H      -2.9623800000     1.2476400000    -1.4117100000
   12      H      -1.8273800000     0.3015400000    -1.0739100000
   13      O      -0.3573800000     0.8049400000     2.4046900000
   14      H      -0.3703800000     0.0258400000     1.8106900000
   15      H      -1.1263800000     0.6592400000     2.9756900000
   16      O       2.1056200000     1.8959400000    -0.2653100000
   17      H       2.9266200000     1.9255400000    -0.7854100000
   18      H       2.3216200000     1.7101400000     0.6826900000
   19      O       0.3126200000    -2.8776600000    -0.7917100000
   20      H       0.6786200000    -3.4117600000    -1.5229100000
   21      H       0.4296200000    -3.5663600000    -0.1293100000
   22      O       2.6606200000     0.1209400000     1.8896900000
   23      H       2.9146200000    -0.3582600000     1.0966900000
   24      H       2.0326200000    -0.3330600000     2.4326900000
 ----------------------------------------------------------------
 Nuclear Repulsion Energy =         440.20728278 hartrees
 There are       40 alpha and       40 beta electrons
 Requested basis set is cc-pV5Z
 There are 408 shells and 1608 basis functions

 Total QAlloc Memory Limit  63000 MB
 Mega-Array Size      7821 MB
 MEM_STATIC part      8000 MB

 A cutoff of  1.0D-12 yielded  47436 shell pairs
 There are    610018 function pairs (   1002836 Cartesian)
 Smallest overlap matrix eigenvalue = 1.76E-05

 Scale SEOQF with 1.000000e-01/1.000000e-01/1.000000e-01

 Standard Electronic Orientation quadrupole field applied
 Nucleus-field energy     =     0.0000000213 hartrees
 Guess MOs from SCF MO coefficient file
 Reading MOs from coefficient file
 Reading MOs from coefficient file
 Skipping gen_scfman as requested.
 MAX_CIS_SUBSPACE fits in available memory
 Direct TDDFT/TDA calculation will be performed
 Exchange:     0.2000 Hartree-Fock + 0.0800 Slater + 0.7200 B88
 Correlation:  0.1900 VWN1RPA + 0.8100 LYP
 Using Euler-Maclaurin-Lebedev (75,302) quadrature formula
 Singlet excitation energies requested
 CIS energy converged when residual is below 10e- 6
   
 ***Using a Restricted Set of Single Excitations***
   
 RCIS calculation
   
 Excitations from specified occupied orbitals
 -------------------------------------------------------------
              Orbitals in Truncated CIS space
 -------------------------------------------------------------
     4  41  42  43  44  45  46  47  48  49  50  51  52  53  54
    55  56  57  58  59  60  61  62  63  64  65  66  67  68  69
    70  71  72  73  74  75  76  77  78  79  80  81  82  83  84
    85  86  87  88  89  90  91  92  93  94  95  96  97  98  99
   100 101 102 103 104 105 106 107 108 109 110 111 112 113 114
   115 116 117 118 119 120 121 122 123 124 125 126 127 128 129
   130 131 132 133 134 135 136 137 138 139 140 141 142 143 144
   145 146 147 148 149 150 151 152 153 154 155 156 157 158 159
   160 161 162 163 164 165 166 167 168 169 170 171 172 173 174
   175 176 177 178 179 180 181 182 183 184 185 186 187 188 189
   190 191 192 193 194 195 196 197 198 199 200 201 202 203 204
   205 206 207 208 209 210 211 212 213 214 215 216 217 218 219
   220 221 222 223 224 225 226 227 228 229 230 231 232 233 234
   235 236 237 238 239 240 241 242 243 244 245 246 247 248 249
   250 251 252 253 254 255 256 257 258 259 260 261 262 263 264
   265 266 267 268 269 270 271 272 273 274 275 276 277 278 279
   280 281 282 283 284 285 286 287 288 289 290 291 292 293 294
   295 296 297 298 299 300 301 302 303 304 305 306 307 308 309
   310 311 312 313 314 315 316 317 318 319 320 321 322 323 324
   325 326 327 328 329 330 331 332 333 334 335 336 337 338 339
   340 341 342 343 344 345 346 347 348 349 350 351 352 353 354
   355 356 357 358 359 360 361 362 363 364 365 366 367 368 369
   370 371 372 373 374 375 376 377 378 379 380 381 382 383 384
   385 386 387 388 389 390 391 392 393 394 395 396 397 398 399
   400 401 402 403 404 405 406 407 408 409 410 411 412 413 414
   415 416 417 418 419 420 421 422 423 424 425 426 427 428 429
   430 431 432 433 434 435 436 437 438 439 440 441 442 443 444
   445 446 447 448 449 450 451 452 453 454 455 456 457 458 459
   460 461 462 463 464 465 466 467 468 469 470 471 472 473 474
   475 476 477 478 479 480 481 482 483 484 485 486 487 488 489
   490 491 492 493 494 495 496 497 498 499 500 501 502 503 504
   505 506 507 508 509 510 511 512 513 514 515 516 517 518 519
   520 521 522 523 524 525 526 527 528 529 530 531 532 533 534
   535 536 537 538 539 540 541 542 543 544 545 546 547 548 549
   550 551 552 553 554 555 556 557 558 559 560 561 562 563 564
   565 566 567 568 569 570 571 572 573 574 575 576 577 578 579
   580 581 582 583 584 585 586 587 588 589 590 591 592 593 594
   595 596 597 598 599 600 601 602 603 604 605 606 607 608 609
   610 611 612 613 614 615 616 617 618 619 620 621 622 623 624
   625 626 627 628 629 630 631 632 633 634 635 636 637 638 639
   640 641 642 643 644 645 646 647 648 649 650 651 652 653 654
   655 656 657 658 659 660 661 662 663 664 665 666 667 668 669
   670 671 672 673 674 675 676 677 678 679 680 681 682 683 684
   685 686 687 688 689 690 691 692 693 694 695 696 697 698 699
   700 701 702 703 704 705 706 707 708 709 710 711 712 713 714
   715 716 717 718 719 720 721 722 723 724 725 726 727 728 729
   730 731 732 733 734 735 736 737 738 739 740 741 742 743 744
   745 746 747 748 749 750 751 752 753 754 755 756 757 758 759
   760 761 762 763 764 765 766 767 768 769 770 771 772 773 774
   775 776 777 778 779 780 781 782 783 784 785 786 787 788 789
   790 791 792 793 794 795 796 797 798 799 800 801 802 803 804
   805 806 807 808 809 810 811 812 813 814 815 816 817 818 819
   820 821 822 823 824 825 826 827 828 829 830 831 832 833 834
   835 836 837 838 839 840 841 842 843 844 845 846 847 848 849
   850 851 852 853 854 855 856 857 858 859 860 861 862 863 864
   865 866 867 868 869 870 871 872 873 874 875 876 877 878 879
   880 881 882 883 884 885 886 887 888 889 890 891 892 893 894
   895 896 897 898 899 900 901 902 903 904 905 906 907 908 909
   910 911 912 913 914 915 916 917 918 919 920 921 922 923 924
   925 926 927 928 929 930 931 932 933 934 935 936 937 938 939
   940 941 942 943 944 945 946 947 948 949 950 951 952 953 954
   955 956 957 958 959 960 961 962 963 964 965 966 967 968 969
   970 971 972 973 974 975 976 977 978 979 980 981 982 983 984
   985 986 987 988 989 990 991 992 993 994 995 996 997 998 999
  100010011002100310041005100610071008100910101011101210131014
  101510161017101810191020102110221023102410251026102710281029
  103010311032103310341035103610371038103910401041104210431044
  104510461047104810491050105110521053105410551056105710581059
  106010611062106310641065106610671068106910701071107210731074
  107510761077107810791080108110821083108410851086108710881089
  109010911092109310941095109610971098109911001101110211031104
  110511061107110811091110111111121113111411151116111711181119
  112011211122112311241125112611271128112911301131113211331134
  113511361137113811391140114111421143114411451146114711481149
  115011511152115311541155115611571158115911601161116211631164
  116511661167116811691170117111721173117411751176117711781179
  118011811182118311841185118611871188118911901191119211931194
  119511961197119811991200120112021203120412051206120712081209
  121012111212121312141215121612171218121912201221122212231224
  122512261227122812291230123112321233123412351236123712381239
  124012411242124312441245124612471248124912501251125212531254
  125512561257125812591260126112621263126412651266126712681269
  127012711272127312741275127612771278127912801281128212831284
  128512861287128812891290129112921293129412951296129712981299
  130013011302130313041305130613071308130913101311131213131314
  131513161317131813191320132113221323132413251326132713281329
  133013311332133313341335133613371338133913401341134213431344
  134513461347134813491350135113521353135413551356135713581359
  136013611362136313641365136613671368136913701371137213731374
  137513761377137813791380138113821383138413851386138713881389
  139013911392139313941395139613971398139914001401140214031404
  140514061407140814091410141114121413141414151416141714181419
  142014211422142314241425142614271428142914301431143214331434
  143514361437143814391440144114421443144414451446144714481449
  145014511452145314541455145614571458145914601461146214631464
  146514661467146814691470147114721473147414751476147714781479
  148014811482148314841485148614871488148914901491149214931494
  149514961497149814991500150115021503150415051506150715081509
  151015111512151315141515151615171518151915201521152215231524
  152515261527152815291530153115321533153415351536153715381539
  154015411542154315441545154615471548154915501551155215531554
  155515561557155815591560156115621563156415651566156715681569
  157015711572157315741575157615771578157915801581158215831584
  158515861587158815891590159115921593159415951596159715981599
  160016011602160316041605160616071608
   
    Number of Occupied Orbitals =    1  out of    40
    Number of Virtual Orbitals  = 1568  out of  1568
 -------------------------------------------------------------
 Number of Roots adjusted to:         150
 ---------------------------------------------------
 Iter    Rts Conv    Rts Left    Ttl Dev     Max Dev
 ---------------------------------------------------
   1         0         150      0.010619    0.000185
   2        30         120      0.006655    0.000115
   3       143           7      0.006634    0.000115
   4       150           0      0.006634    0.000115    Roots Converged
 ---------------------------------------------------

 ---------------------------------------------------
         TDDFT/TDA Excitation Energies              
 ---------------------------------------------------

 Excited state   1: excitation energy (eV) =     518.3926
 Total energy for state   1:                  -592.75256631 au
    Multiplicity: Singlet
    Trans. Mom.: -0.0092 X   0.0082 Y   0.0030 Z
    Strength   :     0.0020315277
    D(    4) --> V(    1) amplitude =  0.9853

 Excited state   2: excitation energy (eV) =     519.2294
 Total energy for state   2:                  -592.72181418 au
    Multiplicity: Singlet
    Trans. Mom.:  0.0084 X   0.0062 Y   0.0017 Z
    Strength   :     0.0014251152
    D(    4) --> V(    2) amplitude =  0.9869

 Excited state   3: excitation energy (eV) =     520.1325
 Total energy for state   3:                  -592.68862693 au
    Multiplicity: Singlet
    Trans. Mom.:  0.0040 X   0.0053 Y  -0.0126 Z
    Strength   :     0.0025824494
    D(    4) --> V(    3) amplitude =  0.9838

 Excited state   4: excitation energy (eV) =     520.2889
 Total energy for state   4:                  -592.68288074 au
    Multiplicity: Singlet
    Trans. Mom.: -0.0057 X   0.0044 Y  -0.0039 Z
    Strength   :     0.0008658272
    D(    4) --> V(    4) amplitude =  0.9759

 Excited state   5: excitation energy (eV) =     520.7577
 Total energy for state   5:                  -592.66565176 au
    Multiplicity: Singlet
    Trans. Mom.: -0.0061 X   0.0058 Y   0.0095 Z
    Strength   :     0.0020670691
    D(    4) --> V(    5) amplitude =  0.8756
    D(    4) --> V(    7) amplitude = -0.3661

 Excited state   6: excitation energy (eV) =     520.9339
 Total energy for state   6:                  -592.65917481 au
    Multiplicity: Singlet
    Trans. Mom.:  0.0024 X  -0.0009 Y  -0.0103 Z
    Strength   :     0.0014473444
    D(    4) --> V(    5) amplitude =  0.2814
    D(    4) --> V(    6) amplitude = -0.6614
    D(    4) --> V(    7) amplitude =  0.6645

 Excited state   7: excitation energy (eV) =     521.0696
 Total energy for state   7:                  -592.65418947 au
    Multiplicity: Singlet
    Trans. Mom.: -0.0014 X   0.0009 Y  -0.0024 Z
    Strength   :     0.0001086194
    D(    4) --> V(    5) amplitude =  0.3144
    D(    4) --> V(    6) amplitude =  0.7321
    D(    4) --> V(    7) amplitude =  0.5990

 Excited state   8: excitation energy (eV) =     521.4244
 Total energy for state   8:                  -592.64115191 au
    Multiplicity: Singlet
    Trans. Mom.:  0.0150 X  -0.0087 Y  -0.0063 Z
    Strength   :     0.0043212973
    D(    4) --> V(    8) amplitude =  0.7640
    D(    4) --> V(    9) amplitude = -0.5371

 Excited state   9: excitation energy (eV) =     521.7452
 Total energy for state   9:                  -592.62936113 au
    Multiplicity: Singlet
    Trans. Mom.: -0.0090 X   0.0016 Y   0.0024 Z
    Strength   :     0.0011426745
    D(    4) --> V(    8) amplitude =  0.6089
    D(    4) --> V(    9) amplitude =  0.7719

 Excited state  10: excitation energy (eV) =     521.9665
 Total energy for state  10:                  -592.62122829 au
    Multiplicity: Singlet
    Trans. Mom.: -0.0111 X  -0.0070 Y   0.0065 Z
    Strength   :     0.0027434206
    D(    4) --> V(    9) amplitude = -0.2205
    D(    4) --> V(   10) amplitude =  0.9262
    D(    4) --> V(   12) amplitude =  0.2224

 Excited state  11: excitation energy (eV) =     522.4897
 Total energy for state  11:                  -592.60200208 au
    Multiplicity: Singlet
    Trans. Mom.: -0.0025 X   0.0011 Y   0.0067 Z
    Strength   :     0.0006683027
    D(    4) --> V(   10) amplitude = -0.2133
    D(    4) --> V(   11) amplitude =  0.9070
    D(    4) --> V(   12) amplitude =  0.3441

 Excited state  12: excitation energy (eV) =     522.5489
 Total energy for state  12:                  -592.59982545 au
    Multiplicity: Singlet
    Trans. Mom.: -0.0040 X   0.0045 Y   0.0165 Z
    Strength   :     0.0039389047
    D(    4) --> V(   11) amplitude = -0.3824
    D(    4) --> V(   12) amplitude =  0.8722

 Excited state  13: excitation energy (eV) =     523.1216
 Total energy for state  13:                  -592.57877806 au
    Multiplicity: Singlet
    Trans. Mom.: -0.0212 X  -0.0076 Y  -0.0100 Z
    Strength   :     0.0077693325
    D(    4) --> V(   13) amplitude = -0.4305
    D(    4) --> V(   14) amplitude =  0.8399
    D(    4) --> V(   16) amplitude = -0.2125

 Excited state  14: excitation energy (eV) =     523.1872
 Total energy for state  14:                  -592.57636753 au
    Multiplicity: Singlet
    Trans. Mom.: -0.0007 X  -0.0285 Y   0.0021 Z
    Strength   :     0.0104839317
    D(    4) --> V(   13) amplitude =  0.7657
    D(    4) --> V(   14) amplitude =  0.2968
    D(    4) --> V(   15) amplitude = -0.4398

 Excited state  15: excitation energy (eV) =     523.6778
 Total energy for state  15:                  -592.55833822 au
    Multiplicity: Singlet
    Trans. Mom.:  0.0037 X   0.0164 Y  -0.0027 Z
    Strength   :     0.0037083413
    D(    4) --> V(   13) amplitude =  0.4348
    D(    4) --> V(   14) amplitude =  0.3103
    D(    4) --> V(   15) amplitude =  0.7863
    D(    4) --> V(   16) amplitude =  0.2241

 Excited state  16: excitation energy (eV) =     524.0059
 Total energy for state  16:                  -592.54628010 au
    Multiplicity: Singlet
    Trans. Mom.:  0.0215 X   0.0130 Y   0.0061 Z
    Strength   :     0.0085782697
    D(    4) --> V(   14) amplitude =  0.2408
    D(    4) --> V(   15) amplitude = -0.3817
    D(    4) --> V(   16) amplitude =  0.7888

 Excited state  17: excitation energy (eV) =     524.3225
 Total energy for state  17:                  -592.53464729 au
    Multiplicity: Singlet
    Trans. Mom.:  0.0054 X  -0.0186 Y  -0.0029 Z
    Strength   :     0.0049322226
    D(    4) --> V(   16) amplitude =  0.3949
    D(    4) --> V(   17) amplitude =  0.6452
    D(    4) --> V(   18) amplitude =  0.4849
    D(    4) --> V(   19) amplitude =  0.2201
    D(    4) --> V(   23) amplitude = -0.2265

 Excited state  18: excitation energy (eV) =     524.6288
 Total energy for state  18:                  -592.52339183 au
    Multiplicity: Singlet
    Trans. Mom.: -0.0045 X   0.0057 Y   0.0053 Z
    Strength   :     0.0010353120
    D(    4) --> V(   17) amplitude =  0.6826
    D(    4) --> V(   18) amplitude = -0.6631

 Excited state  19: excitation energy (eV) =     524.8372
 Total energy for state  19:                  -592.51573143 au
    Multiplicity: Singlet
    Trans. Mom.:  0.0015 X  -0.0106 Y  -0.0118 Z
    Strength   :     0.0032733551
    D(    4) --> V(   18) amplitude = -0.4058
    D(    4) --> V(   19) amplitude =  0.8689

 Excited state  20: excitation energy (eV) =     525.3718
 Total energy for state  20:                  -592.49608598 au
    Multiplicity: Singlet
    Trans. Mom.:  0.0074 X   0.0206 Y  -0.0022 Z
    Strength   :     0.0062090580
    D(    4) --> V(   18) amplitude =  0.2811
    D(    4) --> V(   19) amplitude =  0.2743
    D(    4) --> V(   21) amplitude = -0.3054
    D(    4) --> V(   22) amplitude =  0.4447
    D(    4) --> V(   23) amplitude =  0.5777
    D(    4) --> V(   26) amplitude = -0.2568

 Excited state  21: excitation energy (eV) =     525.4124
 Total energy for state  21:                  -592.49459347 au
    Multiplicity: Singlet
    Trans. Mom.: -0.0034 X   0.0052 Y  -0.0061 Z
    Strength   :     0.0009722200
    D(    4) --> V(   21) amplitude =  0.8159
    D(    4) --> V(   22) amplitude =  0.4836

 Excited state  22: excitation energy (eV) =     525.4475
 Total energy for state  22:                  -592.49330215 au
    Multiplicity: Singlet
    Trans. Mom.: -0.0068 X   0.0064 Y   0.0024 Z
    Strength   :     0.0011924556
    D(    4) --> V(   20) amplitude =  0.6013
    D(    4) --> V(   22) amplitude = -0.3759
    D(    4) --> V(   23) amplitude =  0.2300
    D(    4) --> V(   24) amplitude =  0.5768

 Excited state  23: excitation energy (eV) =     525.5512
 Total energy for state  23:                  -592.48949182 au
    Multiplicity: Singlet
    Trans. Mom.:  0.0072 X  -0.0054 Y  -0.0089 Z
    Strength   :     0.0020632420
    D(    4) --> V(   20) amplitude =  0.7510
    D(    4) --> V(   21) amplitude = -0.2243
    D(    4) --> V(   22) amplitude =  0.3092
    D(    4) --> V(   23) amplitude = -0.3272
    D(    4) --> V(   24) amplitude = -0.2786

 Excited state  24: excitation energy (eV) =     525.7083
 Total energy for state  24:                  -592.48371884 au
    Multiplicity: Singlet
    Trans. Mom.: -0.0014 X  -0.0030 Y  -0.0055 Z
    Strength   :     0.0005334373
    D(    4) --> V(   22) amplitude = -0.4590
    D(    4) --> V(   23) amplitude =  0.4082
    D(    4) --> V(   24) amplitude = -0.5034
    D(    4) --> V(   25) amplitude =  0.5440

 Excited state  25: excitation energy (eV) =     525.9392
 Total energy for state  25:                  -592.47523253 au
    Multiplicity: Singlet
    Trans. Mom.: -0.0103 X   0.0051 Y  -0.0049 Z
    Strength   :     0.0019968429
    D(    4) --> V(   23) amplitude = -0.3227
    D(    4) --> V(   24) amplitude =  0.4003
    D(    4) --> V(   25) amplitude =  0.7638
    D(    4) --> V(   27) amplitude =  0.2183

 Excited state  26: excitation energy (eV) =     526.0764
 Total energy for state  26:                  -592.47019290 au
    Multiplicity: Singlet
    Trans. Mom.:  0.0029 X  -0.0088 Y  -0.0021 Z
    Strength   :     0.0011653729
    D(    4) --> V(   23) amplitude =  0.2639
    D(    4) --> V(   24) amplitude =  0.2541
    D(    4) --> V(   26) amplitude =  0.7909
    D(    4) --> V(   28) amplitude = -0.3395

 Excited state  27: excitation energy (eV) =     526.3283
 Total energy for state  27:                  -592.46093417 au
    Multiplicity: Singlet
    Trans. Mom.: -0.0085 X  -0.0039 Y  -0.0122 Z
    Strength   :     0.0030538264
    D(    4) --> V(   26) amplitude = -0.2325
    D(    4) --> V(   27) amplitude =  0.6520
    D(    4) --> V(   28) amplitude = -0.5085
    D(    4) --> V(   29) amplitude =  0.3824

 Excited state  28: excitation energy (eV) =     526.4032
 Total energy for state  28:                  -592.45818091 au
    Multiplicity: Singlet
    Trans. Mom.: -0.0084 X  -0.0001 Y   0.0080 Z
    Strength   :     0.0017453928
    D(    4) --> V(   26) amplitude =  0.3378
    D(    4) --> V(   27) amplitude =  0.6292
    D(    4) --> V(   28) amplitude =  0.6018

 Excited state  29: excitation energy (eV) =     526.6111
 Total energy for state  29:                  -592.45054244 au
    Multiplicity: Singlet
    Trans. Mom.: -0.0075 X   0.0004 Y  -0.0087 Z
    Strength   :     0.0017063733
    D(    4) --> V(   27) amplitude = -0.2394
    D(    4) --> V(   28) amplitude =  0.3528
    D(    4) --> V(   29) amplitude =  0.8411

 Excited state  30: excitation energy (eV) =     526.7301
 Total energy for state  30:                  -592.44617036 au
    Multiplicity: Singlet
    Trans. Mom.: -0.0022 X   0.0061 Y  -0.0002 Z
    Strength   :     0.0005462008
    D(    4) --> V(   30) amplitude =  0.9673

 Excited state  31: excitation energy (eV) =     526.9584
 Total energy for state  31:                  -592.43777884 au
    Multiplicity: Singlet
    Trans. Mom.: -0.0063 X   0.0014 Y   0.0028 Z
    Strength   :     0.0006298238
    D(    4) --> V(   28) amplitude = -0.2235
    D(    4) --> V(   31) amplitude =  0.7256
    D(    4) --> V(   32) amplitude = -0.5346

 Excited state  32: excitation energy (eV) =     527.0878
 Total energy for state  32:                  -592.43302266 au
    Multiplicity: Singlet
    Trans. Mom.:  0.0014 X  -0.0064 Y   0.0041 Z
    Strength   :     0.0007674539
    D(    4) --> V(   31) amplitude = -0.5099
    D(    4) --> V(   32) amplitude = -0.5639
    D(    4) --> V(   33) amplitude =  0.5697

 Excited state  33: excitation energy (eV) =     527.1039
 Total energy for state  33:                  -592.43243329 au
    Multiplicity: Singlet
    Trans. Mom.:  0.0110 X  -0.0012 Y   0.0015 Z
    Strength   :     0.0016156112
    D(    4) --> V(   29) amplitude =  0.2140
    D(    4) --> V(   31) amplitude =  0.3530
    D(    4) --> V(   32) amplitude =  0.4732
    D(    4) --> V(   33) amplitude =  0.6400
    D(    4) --> V(   35) amplitude =  0.3096

 Excited state  34: excitation energy (eV) =     527.3281
 Total energy for state  34:                  -592.42419426 au
    Multiplicity: Singlet
    Trans. Mom.:  0.0019 X  -0.0071 Y   0.0063 Z
    Strength   :     0.0012252865
    D(    4) --> V(   33) amplitude = -0.3460
    D(    4) --> V(   34) amplitude =  0.7876
    D(    4) --> V(   35) amplitude =  0.3884

 Excited state  35: excitation energy (eV) =     527.3821
 Total energy for state  35:                  -592.42220757 au
    Multiplicity: Singlet
    Trans. Mom.:  0.0016 X  -0.0044 Y  -0.0019 Z
    Strength   :     0.0003249144
    D(    4) --> V(   34) amplitude = -0.5450
    D(    4) --> V(   35) amplitude =  0.7563

 Excited state  36: excitation energy (eV) =     527.4374
 Total energy for state  36:                  -592.42017770 au
    Multiplicity: Singlet
    Trans. Mom.: -0.0002 X   0.0104 Y   0.0036 Z
    Strength   :     0.0015711314
    D(    4) --> V(   32) amplitude = -0.2393
    D(    4) --> V(   36) amplitude =  0.8909
    D(    4) --> V(   37) amplitude =  0.2853

 Excited state  37: excitation energy (eV) =     527.6970
 Total energy for state  37:                  -592.41063614 au
    Multiplicity: Singlet
    Trans. Mom.:  0.0058 X   0.0089 Y  -0.0002 Z
    Strength   :     0.0014588534
    D(    4) --> V(   36) amplitude = -0.3316
    D(    4) --> V(   37) amplitude =  0.8404
    D(    4) --> V(   38) amplitude = -0.3383

 Excited state  38: excitation energy (eV) =     527.8454
 Total energy for state  38:                  -592.40518183 au
    Multiplicity: Singlet
    Trans. Mom.: -0.0040 X  -0.0026 Y   0.0072 Z
    Strength   :     0.0009725967
    D(    4) --> V(   37) amplitude =  0.3737
    D(    4) --> V(   38) amplitude =  0.8783

 Excited state  39: excitation energy (eV) =     527.9772
 Total energy for state  39:                  -592.40033840 au
    Multiplicity: Singlet
    Trans. Mom.: -0.0060 X   0.0037 Y   0.0010 Z
    Strength   :     0.0006560403
    D(    4) --> V(   39) amplitude =  0.9712

 Excited state  40: excitation energy (eV) =     528.0580
 Total energy for state  40:                  -592.39737127 au
    Multiplicity: Singlet
    Trans. Mom.: -0.0014 X   0.0017 Y   0.0049 Z
    Strength   :     0.0003707987
    D(    4) --> V(   40) amplitude =  0.8039
    D(    4) --> V(   41) amplitude =  0.5103
    D(    4) --> V(   42) amplitude = -0.2396

 Excited state  41: excitation energy (eV) =     528.0965
 Total energy for state  41:                  -592.39595350 au
    Multiplicity: Singlet
    Trans. Mom.: -0.0004 X   0.0040 Y  -0.0105 Z
    Strength   :     0.0016203107
    D(    4) --> V(   38) amplitude =  0.2171
    D(    4) --> V(   40) amplitude =  0.5234
    D(    4) --> V(   41) amplitude = -0.5229
    D(    4) --> V(   42) amplitude =  0.5945

 Excited state  42: excitation energy (eV) =     528.2332
 Total energy for state  42:                  -592.39093069 au
    Multiplicity: Singlet
    Trans. Mom.: -0.0061 X  -0.0007 Y  -0.0023 Z
    Strength   :     0.0005524731
    D(    4) --> V(   41) amplitude =  0.6167
    D(    4) --> V(   42) amplitude =  0.7177

 Excited state  43: excitation energy (eV) =     528.4113
 Total energy for state  43:                  -592.38438691 au
    Multiplicity: Singlet
    Trans. Mom.:  0.0021 X  -0.0030 Y   0.0023 Z
    Strength   :     0.0002417645
    D(    4) --> V(   43) amplitude =  0.9732

 Excited state  44: excitation energy (eV) =     528.7763
 Total energy for state  44:                  -592.37097237 au
    Multiplicity: Singlet
    Trans. Mom.:  0.0087 X  -0.0040 Y  -0.0056 Z
    Strength   :     0.0015932216
    D(    4) --> V(   44) amplitude =  0.9518

 Excited state  45: excitation energy (eV) =     528.9644
 Total energy for state  45:                  -592.36405930 au
    Multiplicity: Singlet
    Trans. Mom.:  0.0054 X  -0.0009 Y   0.0050 Z
    Strength   :     0.0007091983
    D(    4) --> V(   45) amplitude =  0.9263
    D(    4) --> V(   46) amplitude = -0.2976

 Excited state  46: excitation energy (eV) =     528.9881
 Total energy for state  46:                  -592.36318856 au
    Multiplicity: Singlet
    Trans. Mom.: -0.0070 X   0.0081 Y   0.0040 Z
    Strength   :     0.0016894877
    D(    4) --> V(   45) amplitude =  0.3008
    D(    4) --> V(   46) amplitude =  0.9020

 Excited state  47: excitation energy (eV) =     529.2246
 Total energy for state  47:                  -592.35449878 au
    Multiplicity: Singlet
    Trans. Mom.:  0.0035 X   0.0010 Y  -0.0043 Z
    Strength   :     0.0004094396
    D(    4) --> V(   47) amplitude =  0.9541

 Excited state  48: excitation energy (eV) =     529.4129
 Total energy for state  48:                  -592.34757713 au
    Multiplicity: Singlet
    Trans. Mom.: -0.0042 X   0.0015 Y   0.0075 Z
    Strength   :     0.0009938405
    D(    4) --> V(   48) amplitude =  0.9190

 Excited state  49: excitation energy (eV) =     529.7606
 Total energy for state  49:                  -592.33479910 au
    Multiplicity: Singlet
    Trans. Mom.: -0.0034 X   0.0081 Y   0.0085 Z
    Strength   :     0.0019330252
    D(    4) --> V(   48) amplitude = -0.2312
    D(    4) --> V(   50) amplitude =  0.9068

 Excited state  50: excitation energy (eV) =     529.8177
 Total energy for state  50:                  -592.33270386 au
    Multiplicity: Singlet
    Trans. Mom.:  0.0033 X  -0.0018 Y  -0.0013 Z
    Strength   :     0.0002057975
    D(    4) --> V(   49) amplitude =  0.9742

 Excited state  51: excitation energy (eV) =     530.0574
 Total energy for state  51:                  -592.32389464 au
    Multiplicity: Singlet
    Trans. Mom.: -0.0001 X  -0.0026 Y   0.0072 Z
    Strength   :     0.0007594137
    D(    4) --> V(   51) amplitude =  0.9516

 Excited state  52: excitation energy (eV) =     530.2982
 Total energy for state  52:                  -592.31504421 au
    Multiplicity: Singlet
    Trans. Mom.: -0.0049 X  -0.0046 Y   0.0078 Z
    Strength   :     0.0013924044
    D(    4) --> V(   52) amplitude =  0.8764
    D(    4) --> V(   53) amplitude = -0.3800

 Excited state  53: excitation energy (eV) =     530.4469
 Total energy for state  53:                  -592.30958018 au
    Multiplicity: Singlet
    Trans. Mom.:  0.0004 X  -0.0043 Y  -0.0003 Z
    Strength   :     0.0002385774
    D(    4) --> V(   52) amplitude =  0.4161
    D(    4) --> V(   53) amplitude =  0.8742

 Excited state  54: excitation energy (eV) =     530.5462
 Total energy for state  54:                  -592.30592861 au
    Multiplicity: Singlet
    Trans. Mom.: -0.0028 X  -0.0001 Y   0.0073 Z
    Strength   :     0.0007937858
    D(    4) --> V(   54) amplitude =  0.9583

 Excited state  55: excitation energy (eV) =     530.8083
 Total energy for state  55:                  -592.29629889 au
    Multiplicity: Singlet
    Trans. Mom.:  0.0142 X  -0.0023 Y  -0.0118 Z
    Strength   :     0.0045031590
    D(    4) --> V(   55) amplitude = -0.3113
    D(    4) --> V(   56) amplitude =  0.8714

 Excited state  56: excitation energy (eV) =     530.9255
 Total energy for state  56:                  -592.29199247 au
    Multiplicity: Singlet
    Trans. Mom.: -0.0009 X  -0.0051 Y   0.0025 Z
    Strength   :     0.0004281206
    D(    4) --> V(   55) amplitude =  0.9245
    D(    4) --> V(   56) amplitude =  0.3250

 Excited state  57: excitation energy (eV) =     531.2508
 Total energy for state  57:                  -592.28003762 au
    Multiplicity: Singlet
    Trans. Mom.: -0.0043 X  -0.0057 Y   0.0056 Z
    Strength   :     0.0010745843
    D(    4) --> V(   57) amplitude =  0.9185
    D(    4) --> V(   59) amplitude =  0.3322

 Excited state  58: excitation energy (eV) =     531.5174
 Total energy for state  58:                  -592.27023840 au
    Multiplicity: Singlet
    Trans. Mom.:  0.0041 X   0.0024 Y  -0.0031 Z
    Strength   :     0.0004137930
    D(    4) --> V(   58) amplitude =  0.9457

 Excited state  59: excitation energy (eV) =     531.5734
 Total energy for state  59:                  -592.26817971 au
    Multiplicity: Singlet
    Trans. Mom.: -0.0030 X  -0.0031 Y   0.0070 Z
    Strength   :     0.0008753484
    D(    4) --> V(   57) amplitude = -0.3193
    D(    4) --> V(   59) amplitude =  0.8619
    D(    4) --> V(   60) amplitude =  0.3064

 Excited state  60: excitation energy (eV) =     531.7618
 Total energy for state  60:                  -592.26125943 au
    Multiplicity: Singlet
    Trans. Mom.: -0.0032 X  -0.0061 Y   0.0045 Z
    Strength   :     0.0008745003
    D(    4) --> V(   58) amplitude =  0.2296
    D(    4) --> V(   59) amplitude = -0.2980
    D(    4) --> V(   60) amplitude =  0.8898

 Excited state  61: excitation energy (eV) =     532.0229
 Total energy for state  61:                  -592.25166141 au
    Multiplicity: Singlet
    Trans. Mom.: -0.0075 X  -0.0033 Y   0.0022 Z
    Strength   :     0.0009410417
    D(    4) --> V(   61) amplitude =  0.9576

 Excited state  62: excitation energy (eV) =     532.3843
 Total energy for state  62:                  -592.23838260 au
    Multiplicity: Singlet
    Trans. Mom.: -0.0038 X   0.0083 Y  -0.0005 Z
    Strength   :     0.0010891156
    D(    4) --> V(   62) amplitude =  0.9178
    D(    4) --> V(   63) amplitude = -0.2519

 Excited state  63: excitation energy (eV) =     532.6531
 Total energy for state  63:                  -592.22850250 au
    Multiplicity: Singlet
    Trans. Mom.:  0.0016 X  -0.0060 Y  -0.0078 Z
    Strength   :     0.0012901898
    D(    4) --> V(   62) amplitude =  0.2581
    D(    4) --> V(   63) amplitude =  0.9421

 Excited state  64: excitation energy (eV) =     532.9498
 Total energy for state  64:                  -592.21759878 au
    Multiplicity: Singlet
    Trans. Mom.: -0.0075 X  -0.0084 Y   0.0008 Z
    Strength   :     0.0016663602
    D(    4) --> V(   64) amplitude =  0.8858
    D(    4) --> V(   65) amplitude =  0.4011

 Excited state  65: excitation energy (eV) =     533.2322
 Total energy for state  65:                  -592.20722328 au
    Multiplicity: Singlet
    Trans. Mom.: -0.0020 X   0.0011 Y   0.0040 Z
    Strength   :     0.0002816400
    D(    4) --> V(   64) amplitude = -0.4292
    D(    4) --> V(   65) amplitude =  0.8897

 Excited state  66: excitation energy (eV) =     533.5351
 Total energy for state  66:                  -592.19609188 au
    Multiplicity: Singlet
    Trans. Mom.:  0.0112 X   0.0092 Y   0.0082 Z
    Strength   :     0.0036122864
    D(    4) --> V(   66) amplitude =  0.9647

 Excited state  67: excitation energy (eV) =     534.0475
 Total energy for state  67:                  -592.17726147 au
    Multiplicity: Singlet
    Trans. Mom.: -0.0054 X  -0.0038 Y  -0.0047 Z
    Strength   :     0.0008608556
    D(    4) --> V(   67) amplitude =  0.5911
    D(    4) --> V(   68) amplitude =  0.7838

 Excited state  68: excitation energy (eV) =     534.1461
 Total energy for state  68:                  -592.17363577 au
    Multiplicity: Singlet
    Trans. Mom.:  0.0046 X   0.0053 Y   0.0060 Z
    Strength   :     0.0011186669
    D(    4) --> V(   67) amplitude =  0.7843
    D(    4) --> V(   68) amplitude = -0.5733

 Excited state  69: excitation energy (eV) =     534.6820
 Total energy for state  69:                  -592.15394056 au
    Multiplicity: Singlet
    Trans. Mom.: -0.0034 X   0.0040 Y  -0.0063 Z
    Strength   :     0.0008859970
    D(    4) --> V(   69) amplitude =  0.9691

 Excited state  70: excitation energy (eV) =     534.8367
 Total energy for state  70:                  -592.14825736 au
    Multiplicity: Singlet
    Trans. Mom.:  0.0006 X   0.0083 Y   0.0040 Z
    Strength   :     0.0011257789
    D(    4) --> V(   70) amplitude =  0.9755

 Excited state  71: excitation energy (eV) =     534.9749
 Total energy for state  71:                  -592.14317771 au
    Multiplicity: Singlet
    Trans. Mom.:  0.0040 X  -0.0010 Y   0.0042 Z
    Strength   :     0.0004495092
    D(    4) --> V(   71) amplitude =  0.8244
    D(    4) --> V(   72) amplitude = -0.4554

 Excited state  72: excitation energy (eV) =     535.2917
 Total energy for state  72:                  -592.13153687 au
    Multiplicity: Singlet
    Trans. Mom.: -0.0009 X   0.0023 Y  -0.0050 Z
    Strength   :     0.0004094430
    D(    4) --> V(   71) amplitude =  0.4928
    D(    4) --> V(   72) amplitude =  0.8505

 Excited state  73: excitation energy (eV) =     535.5951
 Total energy for state  73:                  -592.12038580 au
    Multiplicity: Singlet
    Trans. Mom.: -0.0027 X  -0.0051 Y  -0.0061 Z
    Strength   :     0.0009252736
    D(    4) --> V(   73) amplitude =  0.9034
    D(    4) --> V(   74) amplitude = -0.2837

 Excited state  74: excitation energy (eV) =     535.8216
 Total energy for state  74:                  -592.11206264 au
    Multiplicity: Singlet
    Trans. Mom.:  0.0039 X   0.0068 Y  -0.0038 Z
    Strength   :     0.0009873431
    D(    4) --> V(   73) amplitude =  0.2516
    D(    4) --> V(   74) amplitude =  0.9222
    D(    4) --> V(   75) amplitude =  0.2450

 Excited state  75: excitation energy (eV) =     535.9316
 Total energy for state  75:                  -592.10802095 au
    Multiplicity: Singlet
    Trans. Mom.:  0.0010 X   0.0076 Y  -0.0004 Z
    Strength   :     0.0007828422
    D(    4) --> V(   74) amplitude = -0.2127
    D(    4) --> V(   75) amplitude =  0.9534

 Excited state  76: excitation energy (eV) =     536.0646
 Total energy for state  76:                  -592.10313239 au
    Multiplicity: Singlet
    Trans. Mom.: -0.0089 X   0.0088 Y  -0.0060 Z
    Strength   :     0.0025237578
    D(    4) --> V(   76) amplitude =  0.9425

 Excited state  77: excitation energy (eV) =     536.4492
 Total energy for state  77:                  -592.08899710 au
    Multiplicity: Singlet
    Trans. Mom.: -0.0015 X  -0.0038 Y   0.0003 Z
    Strength   :     0.0002251254
    D(    4) --> V(   77) amplitude =  0.9552

 Excited state  78: excitation energy (eV) =     536.6431
 Total energy for state  78:                  -592.08187423 au
    Multiplicity: Singlet
    Trans. Mom.: -0.0002 X   0.0006 Y  -0.0014 Z
    Strength   :     0.0000307841
    D(    4) --> V(   76) amplitude = -0.2317
    D(    4) --> V(   78) amplitude =  0.9423

 Excited state  79: excitation energy (eV) =     536.9889
 Total energy for state  79:                  -592.06916564 au
    Multiplicity: Singlet
    Trans. Mom.:  0.0028 X   0.0002 Y  -0.0031 Z
    Strength   :     0.0002302837
    D(    4) --> V(   79) amplitude =  0.9914

 Excited state  80: excitation energy (eV) =     537.3447
 Total energy for state  80:                  -592.05608884 au
    Multiplicity: Singlet
    Trans. Mom.:  0.0004 X   0.0011 Y   0.0034 Z
    Strength   :     0.0001711999
    D(    4) --> V(   80) amplitude =  0.9749

 Excited state  81: excitation energy (eV) =     537.4005
 Total energy for state  81:                  -592.05403893 au
    Multiplicity: Singlet
    Trans. Mom.:  0.0015 X  -0.0063 Y   0.0041 Z
    Strength   :     0.0007690254
    D(    4) --> V(   81) amplitude =  0.9613

 Excited state  82: excitation energy (eV) =     537.7070
 Total energy for state  82:                  -592.04277741 au
    Multiplicity: Singlet
    Trans. Mom.:  0.0018 X   0.0026 Y   0.0021 Z
    Strength   :     0.0001935910
    D(    4) --> V(   82) amplitude =  0.9271
    D(    4) --> V(   83) amplitude =  0.3043

 Excited state  83: excitation energy (eV) =     537.8708
 Total energy for state  83:                  -592.03675540 au
    Multiplicity: Singlet
    Trans. Mom.: -0.0071 X  -0.0049 Y   0.0049 Z
    Strength   :     0.0012884791
    D(    4) --> V(   82) amplitude = -0.3140
    D(    4) --> V(   83) amplitude =  0.9232

 Excited state  84: excitation energy (eV) =     538.2999
 Total energy for state  84:                  -592.02098723 au
    Multiplicity: Singlet
    Trans. Mom.: -0.0027 X  -0.0073 Y  -0.0027 Z
    Strength   :     0.0008972189
    D(    4) --> V(   84) amplitude =  0.9416

 Excited state  85: excitation energy (eV) =     538.4151
 Total energy for state  85:                  -592.01675287 au
    Multiplicity: Singlet
    Trans. Mom.: -0.0078 X   0.0069 Y   0.0068 Z
    Strength   :     0.0020466855
    D(    4) --> V(   84) amplitude =  0.2242
    D(    4) --> V(   85) amplitude =  0.9537

 Excited state  86: excitation energy (eV) =     538.7060
 Total energy for state  86:                  -592.00606322 au
    Multiplicity: Singlet
    Trans. Mom.: -0.0053 X   0.0039 Y  -0.0024 Z
    Strength   :     0.0006534414
    D(    4) --> V(   86) amplitude =  0.9679

 Excited state  87: excitation energy (eV) =     538.7774
 Total energy for state  87:                  -592.00343760 au
    Multiplicity: Singlet
    Trans. Mom.:  0.0045 X   0.0005 Y   0.0078 Z
    Strength   :     0.0010649216
    D(    4) --> V(   87) amplitude =  0.9340
    D(    4) --> V(   89) amplitude = -0.2522

 Excited state  88: excitation energy (eV) =     538.9535
 Total energy for state  88:                  -591.99696938 au
    Multiplicity: Singlet
    Trans. Mom.: -0.0037 X  -0.0120 Y   0.0028 Z
    Strength   :     0.0021866639
    D(    4) --> V(   87) amplitude = -0.2991
    D(    4) --> V(   88) amplitude =  0.7706
    D(    4) --> V(   89) amplitude = -0.4877
    D(    4) --> V(   90) amplitude = -0.2130

 Excited state  89: excitation energy (eV) =     539.0950
 Total energy for state  89:                  -591.99176706 au
    Multiplicity: Singlet
    Trans. Mom.:  0.0042 X  -0.0031 Y  -0.0071 Z
    Strength   :     0.0010151928
    D(    4) --> V(   88) amplitude =  0.4502
    D(    4) --> V(   89) amplitude =  0.8039
    D(    4) --> V(   90) amplitude = -0.3396

 Excited state  90: excitation energy (eV) =     539.1765
 Total energy for state  90:                  -591.98877409 au
    Multiplicity: Singlet
    Trans. Mom.: -0.0028 X   0.0014 Y   0.0064 Z
    Strength   :     0.0006710109
    D(    4) --> V(   88) amplitude =  0.3644
    D(    4) --> V(   90) amplitude =  0.9042

 Excited state  91: excitation energy (eV) =     539.5679
 Total energy for state  91:                  -591.97438804 au
    Multiplicity: Singlet
    Trans. Mom.:  0.0007 X   0.0087 Y   0.0016 Z
    Strength   :     0.0010417341
    D(    4) --> V(   91) amplitude =  0.9781

 Excited state  92: excitation energy (eV) =     539.8947
 Total energy for state  92:                  -591.96237937 au
    Multiplicity: Singlet
    Trans. Mom.:  0.0073 X  -0.0043 Y   0.0035 Z
    Strength   :     0.0011174466
    D(    4) --> V(   92) amplitude =  0.9176
    D(    4) --> V(   93) amplitude =  0.2640
    D(    4) --> V(   94) amplitude =  0.2217

 Excited state  93: excitation energy (eV) =     540.1866
 Total energy for state  93:                  -591.95165200 au
    Multiplicity: Singlet
    Trans. Mom.: -0.0024 X   0.0031 Y  -0.0040 Z
    Strength   :     0.0004134937
    D(    4) --> V(   93) amplitude =  0.8531
    D(    4) --> V(   94) amplitude = -0.4803

 Excited state  94: excitation energy (eV) =     540.2375
 Total energy for state  94:                  -591.94978321 au
    Multiplicity: Singlet
    Trans. Mom.:  0.0005 X   0.0013 Y   0.0020 Z
    Strength   :     0.0000784173
    D(    4) --> V(   92) amplitude = -0.3286
    D(    4) --> V(   93) amplitude =  0.4177
    D(    4) --> V(   94) amplitude =  0.8104

 Excited state  95: excitation energy (eV) =     540.4302
 Total energy for state  95:                  -591.94269828 au
    Multiplicity: Singlet
    Trans. Mom.: -0.0005 X   0.0029 Y   0.0037 Z
    Strength   :     0.0003000695
    D(    4) --> V(   95) amplitude =  0.9359
    D(    4) --> V(   96) amplitude = -0.2778

 Excited state  96: excitation energy (eV) =     540.5477
 Total energy for state  96:                  -591.93838048 au
    Multiplicity: Singlet
    Trans. Mom.: -0.0064 X  -0.0019 Y  -0.0030 Z
    Strength   :     0.0007143576
    D(    4) --> V(   95) amplitude =  0.2883
    D(    4) --> V(   96) amplitude =  0.9386

 Excited state  97: excitation energy (eV) =     540.7655
 Total energy for state  97:                  -591.93037637 au
    Multiplicity: Singlet
    Trans. Mom.:  0.0049 X  -0.0029 Y   0.0068 Z
    Strength   :     0.0010407058
    D(    4) --> V(   97) amplitude =  0.7381
    D(    4) --> V(   98) amplitude = -0.5057
    D(    4) --> V(   99) amplitude =  0.2719

 Excited state  98: excitation energy (eV) =     540.8204
 Total energy for state  98:                  -591.92835939 au
    Multiplicity: Singlet
    Trans. Mom.: -0.0059 X  -0.0017 Y   0.0012 Z
    Strength   :     0.0005102733
    D(    4) --> V(   97) amplitude =  0.5800
    D(    4) --> V(   98) amplitude =  0.7759

 Excited state  99: excitation energy (eV) =     540.9955
 Total energy for state  99:                  -591.92192508 au
    Multiplicity: Singlet
    Trans. Mom.:  0.0008 X  -0.0049 Y   0.0033 Z
    Strength   :     0.0004717738
    D(    4) --> V(   97) amplitude = -0.2465
    D(    4) --> V(   99) amplitude =  0.9245

 Excited state 100: excitation energy (eV) =     541.0709
 Total energy for state 100:                  -591.91915293 au
    Multiplicity: Singlet
    Trans. Mom.: -0.0010 X  -0.0005 Y  -0.0001 Z
    Strength   :     0.0000158186
    D(    4) --> V(   98) amplitude =  0.2153
    D(    4) --> V(  100) amplitude =  0.9342

 Excited state 101: excitation energy (eV) =     541.4607
 Total energy for state 101:                  -591.90482955 au
    Multiplicity: Singlet
    Trans. Mom.: -0.0032 X  -0.0042 Y  -0.0010 Z
    Strength   :     0.0003851010
    D(    4) --> V(  101) amplitude =  0.9795

 Excited state 102: excitation energy (eV) =     541.5489
 Total energy for state 102:                  -591.90158765 au
    Multiplicity: Singlet
    Trans. Mom.: -0.0137 X  -0.0057 Y   0.0043 Z
    Strength   :     0.0031701955
    D(    4) --> V(  103) amplitude =  0.7799
    D(    4) --> V(  104) amplitude =  0.4387
    D(    4) --> V(  106) amplitude = -0.2743

 Excited state 103: excitation energy (eV) =     541.6397
 Total energy for state 103:                  -591.89825339 au
    Multiplicity: Singlet
    Trans. Mom.: -0.0116 X  -0.0004 Y  -0.0033 Z
    Strength   :     0.0019159337
    D(    4) --> V(  102) amplitude =  0.9126
    D(    4) --> V(  104) amplitude = -0.2148

 Excited state 104: excitation energy (eV) =     541.8019
 Total energy for state 104:                  -591.89228950 au
    Multiplicity: Singlet
    Trans. Mom.:  0.0048 X  -0.0113 Y   0.0011 Z
    Strength   :     0.0020118451
    D(    4) --> V(  103) amplitude = -0.5235
    D(    4) --> V(  104) amplitude =  0.7784
    D(    4) --> V(  105) amplitude = -0.2126

 Excited state 105: excitation energy (eV) =     541.8947
 Total energy for state 105:                  -591.88887999 au
    Multiplicity: Singlet
    Trans. Mom.:  0.0026 X   0.0042 Y   0.0031 Z
    Strength   :     0.0004467926
    D(    4) --> V(  102) amplitude =  0.2805
    D(    4) --> V(  104) amplitude =  0.2444
    D(    4) --> V(  105) amplitude =  0.8909

 Excited state 106: excitation energy (eV) =     542.0573
 Total energy for state 106:                  -591.88290400 au
    Multiplicity: Singlet
    Trans. Mom.:  0.0008 X   0.0005 Y   0.0002 Z
    Strength   :     0.0000109678
    D(    4) --> V(  104) amplitude =  0.2409
    D(    4) --> V(  106) amplitude =  0.9203

 Excited state 107: excitation energy (eV) =     542.2655
 Total energy for state 107:                  -591.87525247 au
    Multiplicity: Singlet
    Trans. Mom.: -0.0037 X  -0.0048 Y  -0.0045 Z
    Strength   :     0.0007421176
    D(    4) --> V(  107) amplitude =  0.9427

 Excited state 108: excitation energy (eV) =     542.6159
 Total energy for state 108:                  -591.86237671 au
    Multiplicity: Singlet
    Trans. Mom.: -0.0010 X  -0.0045 Y   0.0048 Z
    Strength   :     0.0005851046
    D(    4) --> V(  107) amplitude = -0.2293
    D(    4) --> V(  108) amplitude =  0.9317

 Excited state 109: excitation energy (eV) =     542.7209
 Total energy for state 109:                  -591.85851652 au
    Multiplicity: Singlet
    Trans. Mom.:  0.0047 X  -0.0091 Y  -0.0044 Z
    Strength   :     0.0016492272
    D(    4) --> V(  109) amplitude =  0.8557
    D(    4) --> V(  110) amplitude =  0.4739

 Excited state 110: excitation energy (eV) =     542.8506
 Total energy for state 110:                  -591.85375163 au
    Multiplicity: Singlet
    Trans. Mom.: -0.0017 X  -0.0015 Y  -0.0024 Z
    Strength   :     0.0001439744
    D(    4) --> V(  109) amplitude = -0.4893
    D(    4) --> V(  110) amplitude =  0.8551

 Excited state 111: excitation energy (eV) =     543.0563
 Total energy for state 111:                  -591.84619411 au
    Multiplicity: Singlet
    Trans. Mom.: -0.0075 X   0.0066 Y  -0.0016 Z
    Strength   :     0.0013519902
    D(    4) --> V(  111) amplitude =  0.9526

 Excited state 112: excitation energy (eV) =     543.2729
 Total energy for state 112:                  -591.83823241 au
    Multiplicity: Singlet
    Trans. Mom.: -0.0031 X   0.0008 Y   0.0041 Z
    Strength   :     0.0003651471
    D(    4) --> V(  112) amplitude =  0.8494
    D(    4) --> V(  113) amplitude =  0.4555

 Excited state 113: excitation energy (eV) =     543.4592
 Total energy for state 113:                  -591.83138633 au
    Multiplicity: Singlet
    Trans. Mom.: -0.0070 X  -0.0011 Y  -0.0013 Z
    Strength   :     0.0006986579
    D(    4) --> V(  112) amplitude = -0.4670
    D(    4) --> V(  113) amplitude =  0.7359
    D(    4) --> V(  114) amplitude = -0.4086

 Excited state 114: excitation energy (eV) =     543.5826
 Total energy for state 114:                  -591.82685060 au
    Multiplicity: Singlet
    Trans. Mom.:  0.0051 X  -0.0047 Y   0.0078 Z
    Strength   :     0.0014586621
    D(    4) --> V(  113) amplitude =  0.4475
    D(    4) --> V(  114) amplitude =  0.8414

 Excited state 115: excitation energy (eV) =     543.8964
 Total energy for state 115:                  -591.81532024 au
    Multiplicity: Singlet
    Trans. Mom.: -0.0124 X   0.0007 Y   0.0007 Z
    Strength   :     0.0020781681
    D(    4) --> V(  114) amplitude =  0.2131
    D(    4) --> V(  115) amplitude = -0.4517
    D(    4) --> V(  116) amplitude =  0.8041

 Excited state 116: excitation energy (eV) =     544.0688
 Total energy for state 116:                  -591.80898526 au
    Multiplicity: Singlet
    Trans. Mom.: -0.0018 X   0.0015 Y   0.0043 Z
    Strength   :     0.0003147882
    D(    4) --> V(  115) amplitude =  0.8590
    D(    4) --> V(  116) amplitude =  0.4487

 Excited state 117: excitation energy (eV) =     544.4894
 Total energy for state 117:                  -591.79352600 au
    Multiplicity: Singlet
    Trans. Mom.: -0.0020 X  -0.0033 Y  -0.0037 Z
    Strength   :     0.0003842257
    D(    4) --> V(  116) amplitude = -0.2470
    D(    4) --> V(  117) amplitude =  0.9163
    D(    4) --> V(  118) amplitude =  0.2830

 Excited state 118: excitation energy (eV) =     544.6767
 Total energy for state 118:                  -591.78664224 au
    Multiplicity: Singlet
    Trans. Mom.: -0.0094 X   0.0041 Y  -0.0063 Z
    Strength   :     0.0019367826
    D(    4) --> V(  117) amplitude = -0.3179
    D(    4) --> V(  118) amplitude =  0.9210

 Excited state 119: excitation energy (eV) =     545.0809
 Total energy for state 119:                  -591.77179008 au
    Multiplicity: Singlet
    Trans. Mom.:  0.0041 X   0.0072 Y   0.0017 Z
    Strength   :     0.0009605499
    D(    4) --> V(  119) amplitude =  0.9785

 Excited state 120: excitation energy (eV) =     545.5614
 Total energy for state 120:                  -591.75413076 au
    Multiplicity: Singlet
    Trans. Mom.: -0.0012 X  -0.0019 Y  -0.0009 Z
    Strength   :     0.0000823591
    D(    4) --> V(  120) amplitude =  0.5415
    D(    4) --> V(  121) amplitude =  0.8067

 Excited state 121: excitation energy (eV) =     545.6435
 Total energy for state 121:                  -591.75111495 au
    Multiplicity: Singlet
    Trans. Mom.: -0.0040 X  -0.0042 Y  -0.0045 Z
    Strength   :     0.0007248285
    D(    4) --> V(  120) amplitude =  0.7925
    D(    4) --> V(  121) amplitude = -0.5528

 Excited state 122: excitation energy (eV) =     545.8629
 Total energy for state 122:                  -591.74305141 au
    Multiplicity: Singlet
    Trans. Mom.: -0.0034 X   0.0109 Y  -0.0009 Z
    Strength   :     0.0017481802
    D(    4) --> V(  122) amplitude =  0.9505

 Excited state 123: excitation energy (eV) =     546.2225
 Total energy for state 123:                  -591.72983786 au
    Multiplicity: Singlet
    Trans. Mom.:  0.0031 X  -0.0005 Y   0.0056 Z
    Strength   :     0.0005478595
    D(    4) --> V(  123) amplitude =  0.9694

 Excited state 124: excitation energy (eV) =     546.4631
 Total energy for state 124:                  -591.72099565 au
    Multiplicity: Singlet
    Trans. Mom.: -0.0016 X  -0.0016 Y   0.0059 Z
    Strength   :     0.0005313049
    D(    4) --> V(  124) amplitude =  0.9544
    D(    4) --> V(  125) amplitude = -0.2178

 Excited state 125: excitation energy (eV) =     546.8418
 Total energy for state 125:                  -591.70707700 au
    Multiplicity: Singlet
    Trans. Mom.:  0.0026 X   0.0071 Y   0.0011 Z
    Strength   :     0.0007827827
    D(    4) --> V(  124) amplitude =  0.2334
    D(    4) --> V(  125) amplitude =  0.9481

 Excited state 126: excitation energy (eV) =     547.1603
 Total energy for state 126:                  -591.69537282 au
    Multiplicity: Singlet
    Trans. Mom.: -0.0114 X  -0.0034 Y   0.0088 Z
    Strength   :     0.0029411780
    D(    4) --> V(  126) amplitude =  0.7513
    D(    4) --> V(  127) amplitude =  0.5761

 Excited state 127: excitation energy (eV) =     547.4024
 Total energy for state 127:                  -591.68647727 au
    Multiplicity: Singlet
    Trans. Mom.:  0.0009 X  -0.0039 Y  -0.0070 Z
    Strength   :     0.0008596593
    D(    4) --> V(  126) amplitude = -0.5849
    D(    4) --> V(  127) amplitude =  0.7760

 Excited state 128: excitation energy (eV) =     547.7620
 Total energy for state 128:                  -591.67326018 au
    Multiplicity: Singlet
    Trans. Mom.:  0.0052 X  -0.0009 Y   0.0021 Z
    Strength   :     0.0004252202
    D(    4) --> V(  128) amplitude =  0.8843
    D(    4) --> V(  129) amplitude =  0.2397
    D(    4) --> V(  130) amplitude = -0.2985

 Excited state 129: excitation energy (eV) =     547.9637
 Total energy for state 129:                  -591.66585054 au
    Multiplicity: Singlet
    Trans. Mom.: -0.0038 X  -0.0076 Y  -0.0034 Z
    Strength   :     0.0011266667
    D(    4) --> V(  129) amplitude =  0.9178
    D(    4) --> V(  130) amplitude =  0.2909

 Excited state 130: excitation energy (eV) =     548.0676
 Total energy for state 130:                  -591.66203139 au
    Multiplicity: Singlet
    Trans. Mom.: -0.0011 X  -0.0006 Y   0.0002 Z
    Strength   :     0.0000203840
    D(    4) --> V(  128) amplitude =  0.3688
    D(    4) --> V(  129) amplitude = -0.2169
    D(    4) --> V(  130) amplitude =  0.8955

 Excited state 131: excitation energy (eV) =     548.3557
 Total energy for state 131:                  -591.65144319 au
    Multiplicity: Singlet
    Trans. Mom.:  0.0022 X  -0.0027 Y   0.0037 Z
    Strength   :     0.0003455684
    D(    4) --> V(  131) amplitude =  0.9891

 Excited state 132: excitation energy (eV) =     548.5109
 Total energy for state 132:                  -591.64573861 au
    Multiplicity: Singlet
    Trans. Mom.:  0.0006 X   0.0006 Y  -0.0004 Z
    Strength   :     0.0000110690
    D(    4) --> V(  132) amplitude =  0.9896

 Excited state 133: excitation energy (eV) =     548.7051
 Total energy for state 133:                  -591.63860348 au
    Multiplicity: Singlet
    Trans. Mom.: -0.0002 X  -0.0077 Y  -0.0040 Z
    Strength   :     0.0010146115
    D(    4) --> V(  134) amplitude =  0.9566

 Excited state 134: excitation energy (eV) =     548.9295
 Total energy for state 134:                  -591.63035581 au
    Multiplicity: Singlet
    Trans. Mom.: -0.0001 X   0.0029 Y   0.0020 Z
    Strength   :     0.0001654776
    D(    4) --> V(  133) amplitude =  0.9538

 Excited state 135: excitation energy (eV) =     549.0941
 Total energy for state 135:                  -591.62430703 au
    Multiplicity: Singlet
    Trans. Mom.:  0.0056 X  -0.0016 Y  -0.0007 Z
    Strength   :     0.0004553483
    D(    4) --> V(  135) amplitude =  0.9704

 Excited state 136: excitation energy (eV) =     549.3423
 Total energy for state 136:                  -591.61518502 au
    Multiplicity: Singlet
    Trans. Mom.:  0.0111 X  -0.0027 Y  -0.0049 Z
    Strength   :     0.0020650084
    D(    4) --> V(  136) amplitude =  0.9633

 Excited state 137: excitation energy (eV) =     549.4944
 Total energy for state 137:                  -591.60959639 au
    Multiplicity: Singlet
    Trans. Mom.:  0.0031 X   0.0010 Y   0.0184 Z
    Strength   :     0.0047031607
    D(    4) --> V(  137) amplitude =  0.5996
    D(    4) --> V(  138) amplitude =  0.7414

 Excited state 138: excitation energy (eV) =     549.6458
 Total energy for state 138:                  -591.60403200 au
    Multiplicity: Singlet
    Trans. Mom.:  0.0047 X   0.0006 Y  -0.0016 Z
    Strength   :     0.0003357024
    D(    4) --> V(  137) amplitude =  0.7570
    D(    4) --> V(  138) amplitude = -0.6169

 Excited state 139: excitation energy (eV) =     550.0710
 Total energy for state 139:                  -591.58840751 au
    Multiplicity: Singlet
    Trans. Mom.: -0.0070 X  -0.0061 Y   0.0117 Z
    Strength   :     0.0030061018
    D(    4) --> V(  139) amplitude =  0.8843
    D(    4) --> V(  140) amplitude = -0.2925

 Excited state 140: excitation energy (eV) =     550.1600
 Total energy for state 140:                  -591.58513766 au
    Multiplicity: Singlet
    Trans. Mom.: -0.0088 X  -0.0030 Y  -0.0010 Z
    Strength   :     0.0011796026
    D(    4) --> V(  139) amplitude =  0.2553
    D(    4) --> V(  140) amplitude =  0.4069
    D(    4) --> V(  141) amplitude =  0.7861
    D(    4) --> V(  142) amplitude = -0.2563

 Excited state 141: excitation energy (eV) =     550.2565
 Total energy for state 141:                  -591.58158940 au
    Multiplicity: Singlet
    Trans. Mom.:  0.0016 X   0.0070 Y   0.0007 Z
    Strength   :     0.0007006398
    D(    4) --> V(  140) amplitude =  0.6880
    D(    4) --> V(  141) amplitude = -0.5151
    D(    4) --> V(  142) amplitude = -0.4224

 Excited state 142: excitation energy (eV) =     550.5024
 Total energy for state 142:                  -591.57255397 au
    Multiplicity: Singlet
    Trans. Mom.:  0.0088 X   0.0039 Y   0.0009 Z
    Strength   :     0.0012617201
    D(    4) --> V(  140) amplitude =  0.4525
    D(    4) --> V(  142) amplitude =  0.7949

 Excited state 143: excitation energy (eV) =     550.5593
 Total energy for state 143:                  -591.57046089 au
    Multiplicity: Singlet
    Trans. Mom.:  0.0108 X   0.0107 Y  -0.0057 Z
    Strength   :     0.0035570530
    D(    4) --> V(  143) amplitude = -0.2254
    D(    4) --> V(  144) amplitude =  0.9055

 Excited state 144: excitation energy (eV) =     550.6745
 Total energy for state 144:                  -591.56622857 au
    Multiplicity: Singlet
    Trans. Mom.:  0.0026 X   0.0098 Y   0.0074 Z
    Strength   :     0.0021346262
    D(    4) --> V(  143) amplitude =  0.9141

 Excited state 145: excitation energy (eV) =     550.8965
 Total energy for state 145:                  -591.55807086 au
    Multiplicity: Singlet
    Trans. Mom.:  0.0077 X  -0.0068 Y  -0.0026 Z
    Strength   :     0.0014976858
    D(    4) --> V(  145) amplitude =  0.9515

 Excited state 146: excitation energy (eV) =     551.2673
 Total energy for state 146:                  -591.54444446 au
    Multiplicity: Singlet
    Trans. Mom.: -0.0029 X  -0.0016 Y  -0.0023 Z
    Strength   :     0.0002218238
    D(    4) --> V(  146) amplitude =  0.9279
    D(    4) --> V(  147) amplitude = -0.2919

 Excited state 147: excitation energy (eV) =     551.3603
 Total energy for state 147:                  -591.54102431 au
    Multiplicity: Singlet
    Trans. Mom.:  0.0089 X  -0.0094 Y  -0.0079 Z
    Strength   :     0.0030924184
    D(    4) --> V(  146) amplitude =  0.2666
    D(    4) --> V(  147) amplitude =  0.9142

 Excited state 148: excitation energy (eV) =     551.5690
 Total energy for state 148:                  -591.53335775 au
    Multiplicity: Singlet
    Trans. Mom.: -0.0010 X   0.0030 Y  -0.0032 Z
    Strength   :     0.0002677511
    D(    4) --> V(  148) amplitude =  0.9345
    D(    4) --> V(  150) amplitude = -0.2202

 Excited state 149: excitation energy (eV) =     551.7930
 Total energy for state 149:                  -591.52512593 au
    Multiplicity: Singlet
    Trans. Mom.:  0.0075 X  -0.0050 Y   0.0105 Z
    Strength   :     0.0025744428
    D(    4) --> V(  148) amplitude =  0.2441
    D(    4) --> V(  149) amplitude =  0.8652
    D(    4) --> V(  150) amplitude =  0.2557

 Excited state 150: excitation energy (eV) =     551.8927
 Total energy for state 150:                  -591.52145913 au
    Multiplicity: Singlet
    Trans. Mom.:  0.0033 X  -0.0063 Y  -0.0046 Z
    Strength   :     0.0009643124
    D(    4) --> V(  149) amplitude = -0.3262
    D(    4) --> V(  150) amplitude =  0.8770

 ---------------------------------------------------
  SETman timing summary (seconds)
  CPU time           1302637.36s
  System time              0.03s
  Wall time          1303044.88s
================================================================================
                             Excited State Analysis
================================================================================

  Ground State (Reference) :
  -------------------------
    NOs
      Occupation of frontier NOs:
         0.0000   0.0000   2.0000   2.0000
      Number of electrons: 80.000000
      Number of unpaired electrons: n_u = -0.00000, n_u,nl =  0.00000
    
    Mulliken Population Analysis (State DM)
    Atom      Charge (e)
    --------------------
     1 O       -0.757620
     2 H        0.372094
     3 H        0.378298
     4 O       -0.691667
     5 H        0.307444
     6 H        0.372133
     7 O       -0.651827
     8 H        0.390335
     9 H        0.254883
    10 O       -0.665258
    11 H        0.285367
    12 H        0.367782
    13 O       -0.603612
    14 H        0.325252
    15 H        0.261443
    16 O       -0.711707
    17 H        0.315328
    18 H        0.406537
    19 O       -0.658848
    20 H        0.345616
    21 H        0.341751
    22 O       -0.673301
    23 H        0.328397
    24 H        0.361178
    --------------------
    Sum:       -0.000000
    
    Multipole moment analysis of the density matrix
      Molecular charge:                      -0.000000
      Number of electrons:                   80.000000
        Center of electronic charge [Ang]: [  0.000891,  -0.003732,  -0.000494]
      Total nuclear charge:                  80.000000
        Center of nuclear charge [Ang]:    [  0.018307,  -0.023054,  -0.000127]
      Dipole moment [D]:                     9.996541
        Cartesian components [D]:          [  6.692405,  -7.424466,   0.140891]
      RMS size of the density [Ang]:         3.177245
        Cartesian components [Ang]:        [  1.740624,   2.261303,   1.397006]
    

  ----------------------------------------------------------------------------
                  Analysis of Unrelaxed Density Matrices
  ----------------------------------------------------------------------------

  Singlet 1 :
  -------------------------
    NOs
      Occupation of frontier NOs:
         0.0000   1.0000   1.0000   2.0000
      Number of electrons: 80.000000
      Number of unpaired electrons: n_u =  2.00000, n_u,nl =  2.00000
      NO participation ratio (PR_NO):  2.000000
    
    NDOs
      Leading detachment eigenvalues:
        -1.0000  -0.0000
      Leading attachment eigenvalues:
         1.0000   0.0000
      Number of detached / attached electrons: p_D =  1.0000, p_A =  1.0000
      Number of involved orbitals: PR_D =  1.000000, PR_A =  1.000000
    
    Mulliken Population Analysis (State/Difference DM)
    Atom      Charge (e)              h+              e-           Del q
    --------------------------------------------------------------------
     1 O        0.192243        0.992119       -0.042255        0.949863
     2 H        0.284662        0.003316       -0.090748       -0.087432
     3 H        0.382016        0.004504       -0.000786        0.003718
     4 O       -0.691815       -0.000000       -0.000147       -0.000147
     5 H        0.302772       -0.000000       -0.004672       -0.004672
     6 H        0.371200        0.000000       -0.000934       -0.000934
     7 O       -0.667138        0.000000       -0.015311       -0.015311
     8 H        0.518414       -0.000000        0.128080        0.128079
     9 H        0.178020        0.000000       -0.076863       -0.076863
    10 O       -0.664831        0.000001        0.000426        0.000427
    11 H        0.278512        0.000000       -0.006855       -0.006855
    12 H        0.365346        0.000022       -0.002457       -0.002435
    13 O       -0.604381       -0.000004       -0.000765       -0.000769
    14 H        0.298600        0.000035       -0.026687       -0.026652
    15 H        0.259030       -0.000000       -0.002412       -0.002413
    16 O       -0.720051        0.000002       -0.008346       -0.008344
    17 H        0.264071        0.000000       -0.051258       -0.051257
    18 H        0.421552        0.000000        0.015014        0.015015
    19 O       -0.814521        0.000005       -0.155678       -0.155673
    20 H        0.113224        0.000000       -0.232393       -0.232393
    21 H        0.081176        0.000000       -0.260575       -0.260575
    22 O       -0.708125        0.000000       -0.034825       -0.034824
    23 H        0.217416        0.000000       -0.110981       -0.110981
    24 H        0.342607        0.000000       -0.018571       -0.018571
    --------------------------------------------------------------------
    Sum:       -0.000000        1.000000       -1.000000       -0.000000
    
    Multipole moment analysis of the density matrix
      Molecular charge:                      -0.000000
      Number of electrons:                   80.000000
        Center of electronic charge [Ang]: [  0.014510,  -0.032972,  -0.004808]
      Total nuclear charge:                  80.000000
        Center of nuclear charge [Ang]:    [  0.018307,  -0.023054,  -0.000127]
      Dipole moment [D]:                     4.459807
        Cartesian components [D]:          [  1.459264,   3.811242,   1.798571]
      RMS size of the density [Ang]:         3.207822
        Cartesian components [Ang]:        [  1.751221,   2.289507,   1.407661]
    
    Exciton analysis of the difference density matrix
      <r_h> [Ang]:                  [ -0.155243,  -0.173983,  -0.054373]
      <r_e> [Ang]:                  [  0.934268,  -2.513194,  -0.399492]
      |<r_e - r_h>| [Ang]:            2.603468
      Hole size [Ang]:                0.122777
        Cartesian components [Ang]: [  0.070887,   0.070891,   0.070878]
      Electron size [Ang]:            2.906412
        Cartesian components [Ang]: [  1.460567,   2.018167,   1.496989]

  Singlet 2 :
  -------------------------
    NOs
      Occupation of frontier NOs:
         0.0000   1.0000   1.0000   2.0000
      Number of electrons: 80.000000
      Number of unpaired electrons: n_u =  2.00000, n_u,nl =  2.00000
      NO participation ratio (PR_NO):  2.000000
    
    NDOs
      Leading detachment eigenvalues:
        -1.0000  -0.0000
      Leading attachment eigenvalues:
         1.0000   0.0000
      Number of detached / attached electrons: p_D =  1.0000, p_A =  1.0000
      Number of involved orbitals: PR_D =  1.000000, PR_A =  1.000000
    
    Mulliken Population Analysis (State/Difference DM)
    Atom      Charge (e)              h+              e-           Del q
    --------------------------------------------------------------------
     1 O        0.207389        0.992119       -0.027109        0.965009
     2 H        0.320803        0.003316       -0.054606       -0.051291
     3 H        0.490573        0.004504        0.107771        0.112274
     4 O       -0.694785       -0.000000       -0.003118       -0.003118
     5 H        0.276366       -0.000000       -0.031078       -0.031078
     6 H        0.375410        0.000000        0.003277        0.003277
     7 O       -0.650506        0.000000        0.001321        0.001321
     8 H        0.455942       -0.000000        0.065607        0.065607
     9 H        0.168926        0.000000       -0.085956       -0.085956
    10 O       -0.673919        0.000001       -0.008662       -0.008661
    11 H        0.284550        0.000000       -0.000817       -0.000817
    12 H        0.376717        0.000022        0.008913        0.008935
    13 O       -0.612028       -0.000004       -0.008413       -0.008416
    14 H        0.327343        0.000035        0.002055        0.002091
    15 H        0.246704       -0.000000       -0.014739       -0.014739
    16 O       -0.701016        0.000002        0.010689        0.010690
    17 H       -0.044522        0.000000       -0.359850       -0.359850
    18 H        0.415752        0.000000        0.009214        0.009215
    19 O       -0.670432        0.000005       -0.011589       -0.011584
    20 H        0.161062        0.000000       -0.184555       -0.184555
    21 H        0.229271        0.000000       -0.112480       -0.112480
    22 O       -0.678405        0.000000       -0.005105       -0.005104
    23 H        0.099999        0.000000       -0.228398       -0.228398
    24 H        0.288807        0.000000       -0.072371       -0.072371
    --------------------------------------------------------------------
    Sum:        0.000000        1.000000       -1.000000        0.000000
    
    Multipole moment analysis of the density matrix
      Molecular charge:                      0.000000
      Number of electrons:                   80.000000
        Center of electronic charge [Ang]: [  0.025144,  -0.011466,  -0.001835]
      Total nuclear charge:                  80.000000
        Center of nuclear charge [Ang]:    [  0.018308,  -0.023054,  -0.000127]
      Dipole moment [D]:                     5.211294
        Cartesian components [D]:          [ -2.627042,  -4.452638,   0.655937]
      RMS size of the density [Ang]:         3.210293
        Cartesian components [Ang]:        [  1.763289,   2.282735,   1.409226]
    
    Exciton analysis of the difference density matrix
      <r_h> [Ang]:                  [ -0.155243,  -0.173983,  -0.054373]
      <r_e> [Ang]:                  [  1.785013,  -0.792700,  -0.161602]
      |<r_e - r_h>| [Ang]:            2.039339
      Hole size [Ang]:                0.122777
        Cartesian components [Ang]: [  0.070887,   0.070891,   0.070878]
      Electron size [Ang]:            3.630348
        Cartesian components [Ang]: [  1.801853,   2.684612,   1.650942]

  Singlet 3 :
  -------------------------
    NOs
      Occupation of frontier NOs:
         0.0000   1.0000   1.0000   2.0000
      Number of electrons: 80.000000
      Number of unpaired electrons: n_u =  2.00000, n_u,nl =  2.00000
      NO participation ratio (PR_NO):  2.000000
    
    NDOs
      Leading detachment eigenvalues:
        -1.0000  -0.0000
      Leading attachment eigenvalues:
         1.0000   0.0000
      Number of detached / attached electrons: p_D =  1.0000, p_A =  1.0000
      Number of involved orbitals: PR_D =  1.000000, PR_A =  1.000000
    
    Mulliken Population Analysis (State/Difference DM)
    Atom      Charge (e)              h+              e-           Del q
    --------------------------------------------------------------------
     1 O        0.225793        0.992119       -0.008705        0.983414
     2 H        0.378858        0.003316        0.003448        0.006764
     3 H        0.391237        0.004504        0.008435        0.012939
     4 O       -0.690440       -0.000000        0.001228        0.001228
     5 H        0.273910       -0.000000       -0.033535       -0.033535
     6 H        0.383527        0.000000        0.011394        0.011394
     7 O       -0.657252        0.000000       -0.005425       -0.005425
     8 H        0.399655       -0.000000        0.009321        0.009320
     9 H        0.242675        0.000000       -0.012208       -0.012208
    10 O       -0.665074        0.000001        0.000183        0.000184
    11 H        0.285211        0.000000       -0.000157       -0.000157
    12 H        0.366369        0.000022       -0.001435       -0.001413
    13 O       -0.563712       -0.000004        0.039904        0.039900
    14 H        0.203514        0.000035       -0.121773       -0.121738
    15 H        0.095614       -0.000000       -0.165829       -0.165829
    16 O       -0.643187        0.000002        0.068518        0.068520
    17 H       -0.110202        0.000000       -0.425530       -0.425530
    18 H        0.429701        0.000000        0.023163        0.023163
    19 O       -0.671076        0.000005       -0.012233       -0.012228
    20 H        0.266034        0.000000       -0.079583       -0.079583
    21 H        0.289341        0.000000       -0.052411       -0.052411
    22 O       -0.680215        0.000000       -0.006914       -0.006914
    23 H        0.365421        0.000000        0.037024        0.037024
    24 H        0.084298        0.000000       -0.276880       -0.276880
[...]
1234  O 7   d 2     -0.00012  -0.00019  -0.00016
1235  O 7   d 3      0.00091   0.00028   0.00105
1236  O 7   d 4      0.00022   0.00043  -0.00051
1237  O 7   d 5     -0.00022  -0.00005  -0.00081
1238  O 7   d 1      0.00408   0.00356   0.00621
1239  O 7   d 2      0.02100   0.00494  -0.01582
1240  O 7   d 3     -0.00719  -0.00158  -0.00581
1241  O 7   d 4     -0.00586  -0.00282   0.00806
1242  O 7   d 5      0.00570   0.00234  -0.00487
1243  O 7   d 1      0.00085  -0.01518   0.00266
1244  O 7   d 2      0.03878   0.02189  -0.03783
1245  O 7   d 3     -0.02730   0.01744  -0.01073
1246  O 7   d 4     -0.00782  -0.02206   0.02443
1247  O 7   d 5     -0.00009  -0.04858  -0.07990
1248  O 7   f 1      0.00001   0.00009  -0.00018
1249  O 7   f 2     -0.00017   0.00001   0.00021
1250  O 7   f 3     -0.00009  -0.00016  -0.00027
1251  O 7   f 4     -0.00020   0.00002   0.00040
1252  O 7   f 5      0.00005  -0.00007  -0.00009
1253  O 7   f 6     -0.00028   0.00002   0.00015
1254  O 7   f 7     -0.00007   0.00006   0.00007
1255  O 7   f 1     -0.00041  -0.00054   0.00164
1256  O 7   f 2      0.00182   0.00008  -0.00197
1257  O 7   f 3      0.00127   0.00105   0.00093
1258  O 7   f 4      0.00107  -0.00018  -0.00206
1259  O 7   f 5     -0.00013   0.00018  -0.00033
1260  O 7   f 6      0.00280   0.00022  -0.00200
1261  O 7   f 7      0.00045  -0.00010  -0.00036
1262  O 7   f 1     -0.00003   0.00888   0.01178
1263  O 7   f 2      0.00693   0.00564  -0.00924
1264  O 7   f 3      0.00701  -0.00333   0.00232
1265  O 7   f 4      0.00504  -0.00323  -0.01586
1266  O 7   f 5     -0.00623  -0.00355  -0.00902
1267  O 7   f 6      0.00770   0.00171  -0.00602
1268  O 7   f 7     -0.00098   0.00286   0.00412
1269  O 7   g 1     -0.00005  -0.00001   0.00004
1270  O 7   g 2     -0.00007  -0.00005   0.00009
1271  O 7   g 3     -0.00011  -0.00001  -0.00001
1272  O 7   g 4      0.00016  -0.00005  -0.00040
1273  O 7   g 5      0.00008   0.00010  -0.00006
1274  O 7   g 6     -0.00008   0.00002   0.00013
1275  O 7   g 7      0.00018   0.00006  -0.00018
1276  O 7   g 8      0.00003  -0.00005  -0.00005
1277  O 7   g 9     -0.00006   0.00001  -0.00008
1278  O 7   g 1      0.00019  -0.00004   0.00004
1279  O 7   g 2     -0.00077   0.00008   0.00031
1280  O 7   g 3      0.00109   0.00093   0.00197
1281  O 7   g 4     -0.00056   0.00095   0.00390
1282  O 7   g 5      0.00001  -0.00018   0.00074
1283  O 7   g 6      0.00054  -0.00031  -0.00096
1284  O 7   g 7     -0.00021  -0.00021   0.00012
1285  O 7   g 8      0.00185   0.00073  -0.00151
1286  O 7   g 9     -0.00002   0.00031   0.00190
1287  O 7   h 1      0.00003  -0.00008  -0.00014
1288  O 7   h 2     -0.00027  -0.00011   0.00016
1289  O 7   h 3      0.00003   0.00014   0.00030
1290  O 7   h 4      0.00005   0.00004   0.00005
1291  O 7   h 5      0.00001  -0.00001   0.00007
1292  O 7   h 6      0.00013   0.00004  -0.00004
1293  O 7   h 7     -0.00008   0.00006   0.00020
1294  O 7   h 8      0.00014   0.00009   0.00025
1295  O 7   h 9      0.00002   0.00013   0.00029
1296  O 7   h10      0.00001   0.00001   0.00002
1297  O 7   h11     -0.00000   0.00005   0.00010
1298  H 13  s       -0.00223   0.00025   0.00811
1299  H 13  s        0.00227  -0.00092   0.00646
1300  H 13  s       -0.06133  -0.06598   0.16751
1301  H 13  s        0.13002  -0.30922  -0.04909
1302  H 13  s       -0.71920   0.22054   1.42389
1303  H 13  px      -0.00030   0.00035   0.00114
1304  H 13  py       0.00085  -0.00036  -0.00144
1305  H 13  pz       0.00101  -0.00062  -0.00192
1306  H 13  px      -0.00109  -0.00180  -0.00219
1307  H 13  py      -0.00130   0.00119   0.00047
1308  H 13  pz      -0.00076   0.00186   0.00141
1309  H 13  px       0.00401   0.02131   0.01613
1310  H 13  py       0.01581  -0.01301   0.00209
1311  H 13  pz      -0.00494  -0.02600   0.01537
1312  H 13  px      -0.02953   0.02291   0.03142
1313  H 13  py       0.00744  -0.05407   0.05735
1314  H 13  pz       0.01440  -0.05580  -0.00960
1315  H 13  d 1     -0.00018  -0.00004  -0.00015
1316  H 13  d 2      0.00017  -0.00023  -0.00065
1317  H 13  d 3      0.00045  -0.00008  -0.00072
1318  H 13  d 4     -0.00046  -0.00016   0.00016
1319  H 13  d 5      0.00032   0.00039   0.00006
1320  H 13  d 1      0.00070   0.00052   0.00063
1321  H 13  d 2     -0.00117   0.00057   0.00558
1322  H 13  d 3     -0.00407  -0.00027   0.00775
1323  H 13  d 4      0.00325   0.00145  -0.00294
1324  H 13  d 5     -0.00201  -0.00194   0.00004
1325  H 13  d 1     -0.00326   0.00518   0.00136
1326  H 13  d 2     -0.00020  -0.00657   0.01704
1327  H 13  d 3     -0.00577  -0.00049   0.00575
1328  H 13  d 4      0.00083   0.00739   0.00760
1329  H 13  d 5     -0.00304   0.00551  -0.01197
1330  H 13  f 1     -0.00010  -0.00016  -0.00002
1331  H 13  f 2      0.00008   0.00007  -0.00018
1332  H 13  f 3      0.00000  -0.00008   0.00033
1333  H 13  f 4     -0.00013  -0.00007   0.00043
1334  H 13  f 5      0.00023   0.00000  -0.00049
1335  H 13  f 6     -0.00006  -0.00001   0.00013
1336  H 13  f 7      0.00001   0.00013   0.00017
1337  H 13  f 1     -0.00056   0.00038  -0.00120
1338  H 13  f 2      0.00092   0.00028  -0.00073
1339  H 13  f 3     -0.00274   0.00077   0.00571
1340  H 13  f 4     -0.00154   0.00098   0.00116
1341  H 13  f 5      0.00176   0.00057  -0.00089
1342  H 13  f 6     -0.00122  -0.00041  -0.00353
1343  H 13  f 7      0.00048  -0.00103  -0.00083
1344  H 13  g 1      0.00005  -0.00001   0.00009
1345  H 13  g 2     -0.00013   0.00001  -0.00014
1346  H 13  g 3      0.00018  -0.00003  -0.00026
1347  H 13  g 4     -0.00025   0.00007   0.00044
1348  H 13  g 5     -0.00002   0.00005  -0.00002
1349  H 13  g 6      0.00017  -0.00002  -0.00022
1350  H 13  g 7     -0.00007  -0.00006  -0.00028
1351  H 13  g 8      0.00004  -0.00001   0.00011
1352  H 13  g 9      0.00003   0.00005   0.00012
1353  H 14  s        0.00141   0.00017  -0.00359
1354  H 14  s       -0.01459  -0.00385   0.00877
1355  H 14  s        0.18497   0.00311  -0.18805
1356  H 14  s        0.22597  -0.08142  -0.43147
1357  H 14  s        0.66844   0.20796  -1.19728
1358  H 14  px      -0.00002   0.00001  -0.00005
1359  H 14  py      -0.00097  -0.00026   0.00131
1360  H 14  pz       0.00097   0.00044  -0.00099
1361  H 14  px       0.00067  -0.00021  -0.00172
1362  H 14  py       0.00046  -0.00025   0.00013
1363  H 14  pz      -0.00143  -0.00105  -0.00128
1364  H 14  px      -0.00223   0.00725   0.01028
1365  H 14  py       0.04207   0.00752  -0.00486
1366  H 14  pz      -0.03472   0.00963   0.04727
1367  H 14  px      -0.00942  -0.00375   0.01605
1368  H 14  py       0.11456   0.01290  -0.06761
1369  H 14  pz      -0.06451   0.01518   0.11271
1370  H 14  d 1      0.00003  -0.00016  -0.00030
1371  H 14  d 2      0.00083   0.00026  -0.00086
1372  H 14  d 3     -0.00017   0.00012   0.00066
1373  H 14  d 4      0.00009   0.00020   0.00030
1374  H 14  d 5      0.00023   0.00015   0.00005
1375  H 14  d 1     -0.00018   0.00095   0.00104
1376  H 14  d 2     -0.01002  -0.00202   0.00753
1377  H 14  d 3      0.00347  -0.00101  -0.00761
1378  H 14  d 4      0.00003  -0.00119  -0.00191
1379  H 14  d 5     -0.00389  -0.00178  -0.00070
1380  H 14  d 1      0.00145   0.00229  -0.00103
1381  H 14  d 2     -0.02496  -0.00470   0.02192
1382  H 14  d 3     -0.00416  -0.01073  -0.02454
1383  H 14  d 4      0.00183  -0.00194  -0.00944
1384  H 14  d 5     -0.01871  -0.00447   0.00078
1385  H 14  f 1     -0.00016  -0.00017  -0.00014
1386  H 14  f 2      0.00012  -0.00003  -0.00019
1387  H 14  f 3      0.00055   0.00002  -0.00043
1388  H 14  f 4     -0.00009  -0.00006   0.00019
1389  H 14  f 5     -0.00005  -0.00000  -0.00004
1390  H 14  f 6      0.00044   0.00012  -0.00012
1391  H 14  f 7      0.00011   0.00004   0.00002
1392  H 14  f 1     -0.00271  -0.00096  -0.00045
1393  H 14  f 2     -0.00038  -0.00090  -0.00088
1394  H 14  f 3      0.00356  -0.00001  -0.00845
1395  H 14  f 4      0.00319   0.00274   0.00263
1396  H 14  f 5     -0.00029   0.00080   0.00288
1397  H 14  f 6      0.00537   0.00186  -0.00217
1398  H 14  f 7     -0.00066  -0.00088  -0.00042
1399  H 14  g 1      0.00001  -0.00001  -0.00005
1400  H 14  g 2      0.00039   0.00020  -0.00002
1401  H 14  g 3     -0.00001   0.00006   0.00019
1402  H 14  g 4     -0.00002   0.00014   0.00070
1403  H 14  g 5     -0.00030  -0.00012   0.00015
1404  H 14  g 6      0.00004  -0.00006  -0.00023
1405  H 14  g 7     -0.00040  -0.00008   0.00044
1406  H 14  g 8      0.00002   0.00007   0.00009
1407  H 14  g 9      0.00018   0.00014   0.00013
1408  O 8   s        0.00114   0.00098  -0.00006
1409  O 8   s       -0.03709  -0.02737   0.00085
1410  O 8   s       -0.00123  -0.00056  -0.00055
1411  O 8   s       -0.05389  -0.03914   0.00227
1412  O 8   s        0.13868   0.08720   0.04399
1413  O 8   s        0.30623   0.12509   0.02157
1414  O 8   px       0.01012  -0.01172   0.00006
1415  O 8   py       0.02541   0.01832   0.00335
1416  O 8   pz      -0.00845   0.01236   0.00389
1417  O 8   px       0.01412  -0.01674   0.00148
1418  O 8   py       0.04275   0.03025   0.00556
1419  O 8   pz      -0.00943   0.01723   0.00479
1420  O 8   px       0.03381  -0.05417  -0.01202
1421  O 8   py       0.04215   0.03321   0.00321
1422  O 8   pz      -0.05179   0.05450   0.02282
1423  O 8   px       0.10819  -0.04828  -0.03691
1424  O 8   py      -0.02260  -0.04610  -0.00884
1425  O 8   pz      -0.12995   0.07660   0.07604
1426  O 8   px       0.01149  -0.20264  -0.07747
1427  O 8   py      -0.08158  -0.01550   0.00511
1428  O 8   pz      -0.28847   0.05176   0.10529
1429  O 8   d 1     -0.00033  -0.00020  -0.00010
1430  O 8   d 2     -0.00016   0.00004   0.00002
1431  O 8   d 3     -0.00004  -0.00010  -0.00004
1432  O 8   d 4      0.00021   0.00007   0.00009
1433  O 8   d 5      0.00012  -0.00005   0.00003
1434  O 8   d 1      0.00171   0.00072   0.00006
1435  O 8   d 2      0.00078   0.00050   0.00063
1436  O 8   d 3      0.00044   0.00169   0.00066
1437  O 8   d 4     -0.00197  -0.00133  -0.00023
1438  O 8   d 5      0.00068   0.00089   0.00006
1439  O 8   d 1     -0.01466   0.00767   0.00391
1440  O 8   d 2      0.01174  -0.01361  -0.00801
1441  O 8   d 3      0.01405  -0.00941  -0.00556
1442  O 8   d 4     -0.00011  -0.00454  -0.00313
1443  O 8   d 5     -0.00597  -0.00072   0.00221
1444  O 8   d 1     -0.02697   0.02966   0.01632
1445  O 8   d 2      0.05380  -0.02360  -0.02169
1446  O 8   d 3      0.04836  -0.02279  -0.02814
1447  O 8   d 4      0.00217   0.00302  -0.00266
1448  O 8   d 5     -0.03387  -0.01126   0.00670
1449  O 8   f 1     -0.00018   0.00000   0.00005
1450  O 8   f 2      0.00001  -0.00018  -0.00013
1451  O 8   f 3      0.00016  -0.00007  -0.00006
1452  O 8   f 4     -0.00015  -0.00002  -0.00002
1453  O 8   f 5      0.00013  -0.00001  -0.00003
1454  O 8   f 6      0.00011   0.00023   0.00007
1455  O 8   f 7      0.00003  -0.00007  -0.00005
1456  O 8   f 1      0.00121  -0.00071  -0.00056
1457  O 8   f 2      0.00016   0.00164   0.00108
1458  O 8   f 3     -0.00208   0.00062   0.00042
1459  O 8   f 4      0.00064  -0.00040  -0.00008
1460  O 8   f 5      0.00017  -0.00073  -0.00014
1461  O 8   f 6     -0.00038  -0.00099  -0.00032
1462  O 8   f 7     -0.00052   0.00067   0.00035
1463  O 8   f 1      0.01143  -0.00136  -0.00289
1464  O 8   f 2     -0.00925  -0.00062   0.00136
1465  O 8   f 3     -0.00881   0.00955   0.00609
1466  O 8   f 4      0.01057   0.00437   0.00171
1467  O 8   f 5     -0.00461   0.00250   0.00268
1468  O 8   f 6     -0.00266  -0.01022  -0.00592
1469  O 8   f 7      0.00037   0.00892   0.00246
1470  O 8   g 1      0.00010   0.00010   0.00005
1471  O 8   g 2      0.00005  -0.00020  -0.00010
1472  O 8   g 3     -0.00031   0.00019   0.00010
1473  O 8   g 4      0.00016  -0.00003   0.00002
1474  O 8   g 5      0.00008  -0.00007  -0.00003
1475  O 8   g 6      0.00008   0.00010   0.00003
1476  O 8   g 7     -0.00007   0.00007  -0.00001
1477  O 8   g 8      0.00002  -0.00008  -0.00004
1478  O 8   g 9      0.00002   0.00006   0.00003
1479  O 8   g 1     -0.00172  -0.00114  -0.00033
1480  O 8   g 2      0.00189   0.00128   0.00066
1481  O 8   g 3      0.00123   0.00007  -0.00036
1482  O 8   g 4     -0.00174  -0.00108  -0.00064
1483  O 8   g 5     -0.00003   0.00011  -0.00015
1484  O 8   g 6     -0.00278   0.00033   0.00015
1485  O 8   g 7     -0.00009   0.00023   0.00057
1486  O 8   g 8     -0.00013   0.00130   0.00068
1487  O 8   g 9      0.00098  -0.00115  -0.00064
1488  O 8   h 1      0.00006   0.00016   0.00006
1489  O 8   h 2     -0.00025  -0.00017  -0.00005
1490  O 8   h 3      0.00013   0.00002  -0.00006
1491  O 8   h 4      0.00027  -0.00021  -0.00000
1492  O 8   h 5     -0.00012   0.00022   0.00010
1493  O 8   h 6     -0.00026   0.00001   0.00002
1494  O 8   h 7     -0.00029  -0.00016  -0.00004
1495  O 8   h 8      0.00011  -0.00020  -0.00013
1496  O 8   h 9      0.00010   0.00028   0.00007
1497  O 8   h10      0.00018  -0.00012  -0.00000
1498  O 8   h11     -0.00018  -0.00001   0.00001
1499  H 15  s        0.00319   0.00419   0.00077
1500  H 15  s        0.02452   0.00197  -0.00116
1501  H 15  s       -0.12728   0.14012   0.07504
1502  H 15  s       -0.61766  -0.30852   0.08434
1503  H 15  s        0.19761   0.93965   0.19653
1504  H 15  px       0.00042   0.00063  -0.00008
1505  H 15  py      -0.00059  -0.00114  -0.00020
1506  H 15  pz      -0.00064  -0.00201  -0.00031
1507  H 15  px      -0.00197  -0.00088   0.00096
1508  H 15  py       0.00378   0.00206   0.00015
1509  H 15  pz       0.00369   0.00409   0.00053
1510  H 15  px       0.03012  -0.00790  -0.01698
1511  H 15  py      -0.03978  -0.00067   0.00732
1512  H 15  pz      -0.06844  -0.00867   0.01201
1513  H 15  px       0.06977   0.03869  -0.00844
1514  H 15  py      -0.09834  -0.01659   0.02638
1515  H 15  pz      -0.17972  -0.04615   0.01973
1516  H 15  d 1     -0.00007   0.00053   0.00020
1517  H 15  d 2      0.00036  -0.00025  -0.00006
1518  H 15  d 3      0.00037  -0.00024   0.00001
1519  H 15  d 4     -0.00058   0.00008   0.00012
1520  H 15  d 5     -0.00048  -0.00019  -0.00027
1521  H 15  d 1      0.00126  -0.00391  -0.00187
1522  H 15  d 2     -0.00439   0.00362   0.00164
1523  H 15  d 3     -0.00477   0.00195   0.00080
1524  H 15  d 4      0.00519  -0.00299  -0.00229
1525  H 15  d 5      0.00225   0.00056   0.00132
1526  H 15  d 1      0.01348   0.00035  -0.00550
1527  H 15  d 2     -0.03410  -0.00787   0.00128
1528  H 15  d 3     -0.02842  -0.01256  -0.00230
1529  H 15  d 4      0.01866   0.00003  -0.00669
1530  H 15  d 5     -0.00201  -0.00238  -0.00210
1531  H 15  f 1      0.00025   0.00007   0.00004
1532  H 15  f 2     -0.00000  -0.00028  -0.00020
1533  H 15  f 3     -0.00009   0.00041   0.00017
1534  H 15  f 4      0.00005  -0.00004   0.00000
1535  H 15  f 5      0.00011  -0.00043  -0.00026
1536  H 15  f 6     -0.00013  -0.00023  -0.00004
1537  H 15  f 7     -0.00023  -0.00006  -0.00006
1538  H 15  f 1     -0.00127   0.00015   0.00052
1539  H 15  f 2      0.00426  -0.00167  -0.00158
1540  H 15  f 3     -0.00716  -0.00152  -0.00059
1541  H 15  f 4     -0.00216  -0.00161  -0.00098
1542  H 15  f 5      0.00442   0.00037  -0.00071
1543  H 15  f 6      0.00271   0.00072   0.00077
1544  H 15  f 7      0.00039   0.00154   0.00107
1545  H 15  g 1      0.00004   0.00002   0.00001
1546  H 15  g 2      0.00002   0.00004   0.00009
1547  H 15  g 3      0.00040  -0.00015  -0.00015
1548  H 15  g 4     -0.00037  -0.00017  -0.00011
1549  H 15  g 5      0.00010  -0.00017  -0.00011
1550  H 15  g 6      0.00024  -0.00001  -0.00005
1551  H 15  g 7      0.00021  -0.00000   0.00008
1552  H 15  g 8     -0.00015   0.00011   0.00007
1553  H 15  g 9     -0.00002  -0.00004  -0.00005
1554  H 16  s        0.00281   0.00192  -0.00085
1555  H 16  s        0.00287   0.01876   0.00521
1556  H 16  s        0.17244  -0.06426  -0.06584
1557  H 16  s       -0.37590  -0.37991  -0.15793
1558  H 16  s        0.82390  -0.02821  -0.14774
1559  H 16  px      -0.00241  -0.00022  -0.00001
1560  H 16  py      -0.00110   0.00002   0.00015
1561  H 16  pz       0.00119   0.00010  -0.00006
1562  H 16  px       0.00795   0.00304   0.00107
1563  H 16  py       0.00296   0.00129   0.00032
1564  H 16  pz      -0.00126  -0.00153  -0.00073
1565  H 16  px      -0.03312  -0.04249  -0.01971
1566  H 16  py      -0.00199  -0.00265  -0.00362
1567  H 16  pz      -0.02348   0.03506   0.02058
1568  H 16  px      -0.03832  -0.08801  -0.04116
1569  H 16  py      -0.04154  -0.03430  -0.02635
1570  H 16  pz       0.07254   0.11694   0.05809
1571  H 16  d 1      0.00044   0.00024   0.00019
1572  H 16  d 2      0.00061   0.00014   0.00003
1573  H 16  d 3     -0.00050  -0.00006  -0.00003
1574  H 16  d 4      0.00020  -0.00090  -0.00030
1575  H 16  d 5     -0.00013   0.00037   0.00018
1576  H 16  d 1     -0.00058  -0.00169  -0.00169
1577  H 16  d 2     -0.00631  -0.00033   0.00055
1578  H 16  d 3      0.00529  -0.00059  -0.00030
1579  H 16  d 4     -0.00440   0.00783   0.00345
1580  H 16  d 5     -0.00056  -0.00489  -0.00194
1581  H 16  d 1     -0.01864  -0.01181  -0.00335
1582  H 16  d 2      0.00846   0.01390   0.00983
1583  H 16  d 3      0.01131  -0.01183  -0.00802
1584  H 16  d 4      0.01772   0.02933   0.01382
1585  H 16  d 5     -0.01690  -0.01923  -0.00481
1586  H 16  f 1      0.00015  -0.00010  -0.00012
1587  H 16  f 2     -0.00078  -0.00001   0.00009
1588  H 16  f 3      0.00049   0.00018   0.00011
1589  H 16  f 4     -0.00002  -0.00006  -0.00011
1590  H 16  f 5      0.00077  -0.00017  -0.00008
1591  H 16  f 6     -0.00014   0.00019   0.00015
1592  H 16  f 7     -0.00033  -0.00026  -0.00002
1593  H 16  f 1     -0.00452  -0.00339  -0.00108
1594  H 16  f 2      0.00315   0.00429   0.00215
1595  H 16  f 3      0.00224  -0.00251  -0.00188
1596  H 16  f 4     -0.00234  -0.00168  -0.00045
1597  H 16  f 5      0.00103  -0.00392  -0.00202
1598  H 16  f 6      0.00322   0.00576   0.00167
1599  H 16  f 7      0.00065  -0.00169  -0.00059
1600  H 16  g 1     -0.00029  -0.00025  -0.00008
1601  H 16  g 2      0.00028   0.00041   0.00018
1602  H 16  g 3      0.00024  -0.00026  -0.00017
1603  H 16  g 4     -0.00026   0.00005   0.00005
1604  H 16  g 5     -0.00008   0.00022   0.00011
1605  H 16  g 6     -0.00033   0.00000   0.00002
1606  H 16  g 7     -0.00007  -0.00033  -0.00012
1607  H 16  g 8      0.00013   0.00027   0.00006
1608  H 16  g 9      0.00012  -0.00006  -0.00001

 -----------------------------------------------------------------
                    Cartesian Multipole Moments
 -----------------------------------------------------------------
    Charge (ESU x 10^10)
                -0.0000
    Dipole Moment (Debye)
         X       6.6924      Y      -7.4245      Z       0.1409
       Tot       9.9965
    Quadrupole Moments (Debye-Ang)
        XX     -53.6309     XY      -8.1989     YY     -47.3333
        XZ     -13.8251     YZ       1.1419     ZZ     -55.7496
    Octopole Moments (Debye-Ang^2)
       XXX      43.9915    XXY      42.7772    XYY      38.8418
       YYY    -175.1484    XXZ       2.6298    XYZ       0.0914
       YYZ     -27.4031    XZZ       3.5983    YZZ     -18.0432
       ZZZ      17.4385
    Hexadecapole Moments (Debye-Ang^3)
      XXXX    -976.9884   XXXY    -259.1960   XXYY    -429.9966
      XYYY    -182.7469   YYYY   -1453.3971   XXXZ    -308.5300
      XXYZ     -66.6527   XYYZ     -56.7382   YYYZ      80.8088
      XXZZ    -312.7591   XYZZ     -85.3517   YYZZ    -335.4556
      XZZZ    -284.0578   YZZZ     -84.3477   ZZZZ    -623.6309
 -----------------------------------------------------------------
 Total job time:  1309913.03s(wall), 1309354.58s(cpu) 
 Fri Jan 24 17:19:29 2025

        *************************************************************
        *                                                           *
        *  Thank you very much for using Q-Chem.  Have a nice day.  *
        *                                                           *
        *************************************************************


