                  Welcome to Q-Chem
     A Quantum Leap Into The Future Of Chemistry


 Q-Chem 6.2 (devel), Q-Chem, Inc., Pleasanton, CA (2024)

 E. Epifanovsky,  A. T. B. Gilbert,  Xintian Feng,  Joonho Lee,  Yuezhi Mao,  
 N. Mardirossian,  P. Pokhilko,  A. White,  M. Wormit,  M. P. Coons,  
 A. L. Dempwolff,  Zhengting Gan,  D. Hait,  P. R. Horn,  L. D. Jacobson,  
 I. Kaliman,  J. Kussmann,  A. W. Lange,  Ka Un Lao,  D. S. Levine,  Jie Liu,  
 S. C. McKenzie,  A. F. Morrison,  K. D. Nanda,  F. Plasser,  D. R. Rehn,  
 M. L. Vidal,  Zhi-Qiang You,  Ying Zhu,  Huseyin Aksu,  B. Alam,  
 B. Albrecht,  A. Aldossary,  E. Alguire,  J. H. Andersen,  
 J. E. Arias-Martinez,  V. Athavale,  D. Barton,  K. Begam,  A. Behn,  
 N. Bellonzi,  Y. A. Bernard,  E. J. Berquist,  H. Burton,  A. Carreras,  
 K. Carter-Fenk,  Mathew Chow,  Romit Chakraborty,  Chandrima Chakravarty,  
 Junhan Chen,  A. D. Chien,  K. D. Closser,  V. Cofer-Shabica,  L. Cunha,  
 S. Dasgupta,  Jia Deng,  Joseph Dickinson,  M. de Wergifosse,  
 M. Diedenhofen,  Hainam Do,  Wenjie Dou,  S. Ehlert,  Po-Tung Fang,  
 S. Fatehi,  Qingguo Feng,  Jonathan Fetherolf,  T. Friedhoff,  
 Thomas Froitzheim,  Sarai Folkestad,  B. Ganoe,  J. Gayvert,  Qinghui Ge,  
 G. Gidofalvi,  M. Gimferrer,  M. Goldey,  Montgomery Gray,  J. Gomes,  
 C. Gonzalez-Espinoza,  S. Gulania,  A. Gunina,  J. A. Gyamfi,  
 M. W. D. Hanson-Heine,  P. H. P. Harbach,  A. W. Hauser,  M. F. Herbst,  
 M. Hernandez Vera,  M. Hodecker,  Z. C. Holden,  S. Houck,  Xunkun Huang,  
 Kerwin Hui,  B. C. Huynh,  K. Ikeda,  M. Ivanov,  Nayanthara K. Jayadev,  
 Hyunjun Ji,  Zuxin Jin,  Hanjie Jiang,  Subrata Jana,  B. Kaduk,  
 S. Kaehler,  R. Kang,  K. Khistyaev,  Jaehoon Kim,  Yongbin Kim,  
 P. Klunzinger,  Z. Koczor-Benda,  Joong Hoon Koh,  D. Kosenkov,  
 Saikiran Kotaru,  L. Koulias,  T. Kowalczyk,  C. M. Krauter,  K. Kue,  
 A. Kunitsa,  T. Kus,  A. Landau,  K. V. Lawler,  D. Lefrancois,  S. Lehtola,  
 Rain Li,  Shaozhi Li,  Tao E. Li,  Yi-Pei Li,  Jiashu Liang,  M. Liebenthal,  
 Hung-Hsuan Lin,  You-Sheng Lin,  Fenglai Liu,  Kuan-Yu Liu,  Xiao Liu,  
 M. Loipersberger,  A. Luenser,  C. Malbon,  Aniket Mandal,  Manisha,  
 A. Manjanath,  P. Manohar,  E. Mansoor,  S. F. Manzer,  Shan-Ping Mao,  
 A. V. Marenich,  T. Markovich,  S. Mason,  F. Matz,  S. A. Maurer,  
 Samuel May,  Alexandra McIsaac,  P. F. McLaughlin,  M. F. S. J. Menger,  
 J.-M. Mewes,  S. A. Mewes,  P. Morgante,  Mohammad Mostafanejad,  
 Madhubani Mukherjee,  J. W. Mullinax,  Quyen Nguyen,  Avik Kumar Ojha,  
 K. J. Oosterbaan,  Eno Paenurk,  Xiaoliang Pan,  G. Paran,  V. Parravicini,  
 Alexander C. Paul,  Suranjan K. Paul,  F. Pavosevic,  Zheng Pei,  S. Prager,  
 E. I. Proynov,  E. Ramos,  B. Rana,  A. E. Rask,  A. Rettig,  R. M. Richard,  
 F. Rob,  E. Rossomme,  T. Scheele,  M. Scheurer,  M. Schneider,  
 P. E. Schneider,  Tim K. Schramm,  N. Sergueev,  S. M. Sharada,  
 Hengyuan Shen,  W. Skomorowski,  D. W. Small,  C. J. Stein,  
 Alistair J. Sterling,  Yingli Su,  Yu-Chuan Su,  E. J. Sundstrom,  
 J. Talbot,  Zhen Tao,  J. Thirman,  Hung-Yi Tsai,  T. Tsuchimochi,  
 N. M. Tubman,  C. Utku,  S. P. Veccham,  O. Vydrov,  Rahel Weiss,  
 J. Wenzel,  Jonathan Wong,  J. Witte,  H. Wu,  Yanze Wu,  A. Yamada,  
 Chou-Hsun Yang,  Kun Yao,  S. Yeganeh,  S. R. Yost,  Qi Yu,  A. Zech,  
 F. Zeller,  Chongxiao Zhao,  Igor Ying Zhang,  Xing Zhang,  Yu Zhang,  
 D. Zuev,  A. Aspuru-Guzik,  A. T. Bell,  N. A. Besley,  K. B. Bravaya,  
 B. R. Brooks,  D. Casanova,  Jeng-Da Chai,  Hsing-Ta Chen,  S. Coriani,  
 C. J. Cramer,  A. E. DePrince, III,  R. A. DiStasio Jr.,  A. Dreuw,  
 B. D. Dunietz,  T. R. Furlani,  W. A. Goddard III,  S. Grimme,  
 S. Hammes-Schiffer,  T. Head-Gordon,  W. J. Hehre,  Chao-Ping Hsu,  
 T.-C. Jagau,  Yousung Jung,  A. Klamt,  Jing Kong,  D. S. Lambrecht,  
 Xiangyuan Li,  WanZhen Liang,  N. J. Mayhall,  C. W. McCurdy,  J. B. Neaton,  
 T. Neudecker,  C. Ochsenfeld,  J. A. Parkhill,  R. Peverati,  
 V. A. Rassolov,  Haisheng Ren,  Yihan Shao,  L. V. Slipchenko,  
 R. P. Steele,  J. E. Subotnik,  A. J. W. Thom,  A. Tkatchenko,  
 D. G. Truhlar,  T. Van Voorhis,  Fan Wang,  T. A. Wesolowski,  K. B. Whaley,  
 H. L. Woodcock III,  P. M. Zimmerman,  S. Faraji,  P. M. W. Gill,  
 M. Head-Gordon,  J. M. Herbert,  A. I. Krylov

 Contributors to earlier versions of Q-Chem not listed above: 
 R. D. Adamson,  B. Austin,  R. Baer,  J. Baker,  G. J. O. Beran,  
 K. Brandhorst,  S. T. Brown,  E. F. C. Byrd,  Arup K. Chakraborty,  
 G. K. L. Chan,  Chun-Min Chang,  Yunqing Chen,  C.-L. Cheng,  
 Siu Hung Chien,  D. M. Chipman,  D. L. Crittenden,  H. Dachsel,  
 R. J. Doerksen,  A. D. Dutoi,  R. G. Edgar,  J. Fosso-Tande,  
 L. Fusti-Molnar,  D. Ghosh,  A. Ghysels,  A. Golubeva-Zadorozhnaya,  
 J. Gonthier,  M. S. Gordon,  S. R. Gwaltney,  G. Hawkins,  J. E. Herr,  
 A. Heyden,  S. Hirata,  E. G. Hohenstein,  G. Kedziora,  F. J. Keil,  
 C. Kelley,  Jihan Kim,  R. A. King,  R. Z. Khaliullin,  P. P. Korambath,  
 W. Kurlancheek,  A. Laurent,  A. M. Lee,  M. S. Lee,  S. V. Levchenko,  
 Ching Yeh Lin,  D. Liotard,  E. Livshits,  R. C. Lochan,  I. Lotan,  
 L. A. Martinez-Martinez,  P. E. Maslen,  N. Nair,  D. P. O'Neill,  
 D. Neuhauser,  E. Neuscamman,  C. M. Oana,  R. Olivares-Amaya,  R. Olson,  
 T. M. Perrine,  B. Peters,  P. A. Pieniazek,  A. Prociuk,  Y. M. Rhee,  
 J. Ritchie,  M. A. Rohrdanz,  E. Rosta,  N. J. Russ,  H. F. Schaefer III,  
 M. W. Schmidt,  N. E. Schultz,  S. Sharma,  N. Shenvi,  C. D. Sherrill,  
 A. C. Simmonett,  A. Sodt,  T. Stein,  D. Stuck,  K. S. Thanthiriwatte,  
 V. Vanovschi,  L. Vogt,  Tao Wang,  A. Warshel,  M. A. Watson,  
 C. F. Williams,  Q. Wu,  X. Xu,  Jun Yang,  W. Zhang,  Yan Zhao

   Please cite Q-Chem as follows:
  "Software for the frontiers of quantum chemistry:
   An overview of developments in the Q-Chem 5 package"
   J. Chem. Phys. 155, 084801 (2021)
   https://doi.org/10.1063/5.0055522 (open access)

 Q-Chem 6.2.2 for Intel X86 EM64T Linux

 Parts of Q-Chem use Armadillo 9.900.5 (Nocturnal Misbehaviour).
 http://arma.sourceforge.net/

 Q-Chem begins on Wed Dec 25 17:36:09 2024  

 Host: compute-0-15.local
0

     Scratch files written to /scratch/keith/A2D0_1//
 Processing $rem in /home/keith/software/qchem/qchem_622/config/preferences:
 Processing $rem in /home/keith/.qchemrc:

 Checking the input file for inconsistencies... 	...done.

--------------------------------------------------------------
User input:
--------------------------------------------------------------
$molecule
read
$end

$rem
method                    b3lyp 
basis                     cc-pv5z 
mem_total                 63000
mem_static                8000
thresh                    12
scf_convergence           8
xc_grid                   000075000302
max_scf_cycles            2000
symmetry                  false
sym_ignore                true
scf_guess                 read
mom_start                 1
cis_n_roots               200
cis_triplets              false
rpa                       false 
trnss                     true
trtype                    2
n_sol                     113
nto_pairs                 2
gui                       2
print_orbitals            true
state_analysis            true
$end

$solute 
4 1413 1414 1415 1416 1417 1418 1419 1420 1421 1422 1423 1424 1425 1426 1427 1428 1429 1430 1431 1432 1433 1434 1435 1436 1437 1438 1439 1440 1441 1442 1443 1444 1445 1446 1447 1448 1449 1450 1451 1452 1453 1454 1455 1456 1457 1458 1459 1460 1461 1462 1463 1464 1465 1466 1467 1468 1469 1470 1471 1472 1473 1474 1475 1476 1477 1478 1479 1480 1481 1482 1483 1484 1485 1486 1487 1488 1489 1490 1491 1492 1493 1494 1495 1496 1497 1498 1499 1500 1501 1502 1503 1504 1505 1506 1507 1508 1509 1510 1511 1512 1513 1514 1515 1516 1517 1518 1519 1520 1521 1522 1523 1524
$end
--------------------------------------------------------------
 ----------------------------------------------------------------
             Standard Nuclear Orientation (Angstroms)
    I     Atom           X                Y                Z
 ----------------------------------------------------------------
    1      O      -0.1553800000    -0.1739600000    -0.0543100000
    2      H       0.2076200000    -0.9729600000    -0.4729100000
    3      H       0.5746200000     0.4263400000    -0.1533100000
    4      O      -0.0463800000     3.6140400000    -0.4712100000
    5      H      -0.2873800000     2.9556400000    -1.1213100000
    6      H       0.9096200000     3.4011400000    -0.2563100000
    7      O      -2.2163800000    -3.6506600000    -0.9005100000
    8      H      -1.4343800000    -3.1768600000    -0.8980100000
    9      H      -2.0343800000    -4.5526600000    -1.1941100000
   10      O      -2.4893800000     0.5007400000    -1.8100100000
   11      H      -2.9623800000     1.2476400000    -1.4117100000
   12      H      -1.8273800000     0.3015400000    -1.0739100000
   13      O      -0.3573800000     0.8049400000     2.4046900000
   14      H      -0.3703800000     0.0258400000     1.8106900000
   15      H      -1.1263800000     0.6592400000     2.9756900000
   16      O       2.1056200000     1.8959400000    -0.2653100000
   17      H       2.9266200000     1.9255400000    -0.7854100000
   18      H       2.3216200000     1.7101400000     0.6826900000
   19      O       0.3126200000    -2.8776600000    -0.7917100000
   20      H       0.6786200000    -3.4117600000    -1.5229100000
   21      H       0.4296200000    -3.5663600000    -0.1293100000
   22      O       2.6606200000     0.1209400000     1.8896900000
   23      H       2.9146200000    -0.3582600000     1.0966900000
   24      H       2.0326200000    -0.3330600000     2.4326900000
 ----------------------------------------------------------------
 Nuclear Repulsion Energy =         440.20728278 hartrees
 There are       40 alpha and       40 beta electrons
 Requested basis set is cc-pV5Z
 There are 408 shells and 1608 basis functions

 Total QAlloc Memory Limit  63000 MB
 Mega-Array Size      7821 MB
 MEM_STATIC part      8000 MB

 A cutoff of  1.0D-12 yielded  47436 shell pairs
 There are    610018 function pairs (   1002836 Cartesian)
 Smallest overlap matrix eigenvalue = 1.76E-05

 Scale SEOQF with 1.000000e-01/1.000000e-01/1.000000e-01

 Standard Electronic Orientation quadrupole field applied
 Nucleus-field energy     =     0.0000000213 hartrees
 Guess MOs from SCF MO coefficient file

 -----------------------------------------------------------------------
  General SCF calculation program by
  Eric Jon Sundstrom, Paul Horn, Yuezhi Mao, Dmitri Zuev, Alec White,
  David Stuck, Shaama M.S., Shane Yost, Joonho Lee, David Small,
  Daniel Levine, Susi Lehtola, Hugh Burton, Evgeny Epifanovsky,
  Bang C. Huynh
 -----------------------------------------------------------------------
 Exchange:     0.2000 Hartree-Fock + 0.0800 Slater + 0.7200 B88
 Correlation:  0.1900 VWN1RPA + 0.8100 LYP
 Using Euler-Maclaurin-Lebedev (75,302) quadrature formula
 A restricted SCF calculation will be
 performed using DIIS
 SCF converges when DIIS error is below 1.0e-08
 ---------------------------------------
  Cycle       Energy         DIIS error
 ---------------------------------------
Maximum Overlap Method Active
 MOM overlap:    40.0 / 40
    1    -611.8031434084      8.40e-10  
    2    -611.8031434084      1.35e-09  Convergence criterion met
Maximum Overlap Method Active
 MOM overlap:    40.00 / 40
 ---------------------------------------
 SCF time:   CPU 22300.66s  wall 5592.00s 
 SCF   energy =  -611.80314341
 Total energy =  -611.80314341
 MAX_CIS_SUBSPACE fits in available memory
 Direct TDDFT/TDA calculation will be performed
 Exchange:     0.2000 Hartree-Fock + 0.0800 Slater + 0.7200 B88
 Correlation:  0.1900 VWN1RPA + 0.8100 LYP
 Using Euler-Maclaurin-Lebedev (75,302) quadrature formula
 Singlet excitation energies requested
 CIS energy converged when residual is below 10e- 6
   
 ***Using a Restricted Set of Single Excitations***
   
 RCIS calculation
   
 Excitations limited to defined orbital subspace
 -------------------------------------------------------------
              Orbitals in Truncated CIS space
 -------------------------------------------------------------
     414131414141514161417141814191420142114221423142414251426
  142714281429143014311432143314341435143614371438143914401441
  144214431444144514461447144814491450145114521453145414551456
  145714581459146014611462146314641465146614671468146914701471
  147214731474147514761477147814791480148114821483148414851486
  148714881489149014911492149314941495149614971498149915001501
  150215031504150515061507150815091510151115121513151415151516
  15171518151915201521152215231524
   
    Number of Occupied Orbitals =    1  out of    40
    Number of Virtual Orbitals  =  112  out of  1568
 -------------------------------------------------------------
 Number of Roots adjusted to:         112
 ---------------------------------------------------
 Iter    Rts Conv    Rts Left    Ttl Dev     Max Dev
 ---------------------------------------------------
   1       112           0      0.010825    0.000291    Roots Converged
 ---------------------------------------------------

 ---------------------------------------------------
         TDDFT/TDA Excitation Energies              
 ---------------------------------------------------

 Excited state   1: excitation energy (eV) =    1019.4151
 Total energy for state   1:                  -574.34032999 au
    Multiplicity: Singlet
    Trans. Mom.:  0.0081 X   0.0033 Y  -0.0038 Z
    Strength   :     0.0022865464
    D(    4) --> V( 1375) amplitude = -0.4123
    D(    4) --> V( 1379) amplitude =  0.6798
    D(    4) --> V( 1381) amplitude =  0.3816
    D(    4) --> V( 1382) amplitude =  0.3034

 Excited state   2: excitation energy (eV) =    1019.8724
 Total energy for state   2:                  -574.32352529 au
    Multiplicity: Singlet
    Trans. Mom.:  0.0031 X   0.0027 Y   0.0032 Z
    Strength   :     0.0006791028
    D(    4) --> V( 1373) amplitude =  0.6516
    D(    4) --> V( 1375) amplitude = -0.2377
    D(    4) --> V( 1378) amplitude = -0.2438
    D(    4) --> V( 1381) amplitude = -0.4705
    D(    4) --> V( 1389) amplitude =  0.3696

 Excited state   3: excitation energy (eV) =    1020.8810
 Total energy for state   3:                  -574.28645772 au
    Multiplicity: Singlet
    Trans. Mom.:  0.0040 X  -0.0008 Y  -0.0025 Z
    Strength   :     0.0005818805
    D(    4) --> V( 1373) amplitude =  0.3113
    D(    4) --> V( 1374) amplitude =  0.3937
    D(    4) --> V( 1375) amplitude =  0.4672
    D(    4) --> V( 1382) amplitude =  0.5132
    D(    4) --> V( 1383) amplitude = -0.2370
    D(    4) --> V( 1390) amplitude = -0.2757

 Excited state   4: excitation energy (eV) =    1021.8914
 Total energy for state   4:                  -574.24932733 au
    Multiplicity: Singlet
    Trans. Mom.: -0.0033 X  -0.0047 Y  -0.0011 Z
    Strength   :     0.0008488316
    D(    4) --> V( 1373) amplitude =  0.5153
    D(    4) --> V( 1374) amplitude = -0.4372
    D(    4) --> V( 1375) amplitude =  0.2539
    D(    4) --> V( 1376) amplitude =  0.4776
    D(    4) --> V( 1378) amplitude =  0.2715
    D(    4) --> V( 1381) amplitude =  0.2650
    D(    4) --> V( 1382) amplitude = -0.2142

 Excited state   5: excitation energy (eV) =    1022.0629
 Total energy for state   5:                  -574.24302473 au
    Multiplicity: Singlet
    Trans. Mom.:  0.0008 X   0.0017 Y   0.0000 Z
    Strength   :     0.0000868201
    D(    4) --> V( 1373) amplitude =  0.3073
    D(    4) --> V( 1374) amplitude =  0.7580
    D(    4) --> V( 1375) amplitude = -0.2309
    D(    4) --> V( 1376) amplitude =  0.2458
    D(    4) --> V( 1382) amplitude = -0.3879

 Excited state   6: excitation energy (eV) =    1022.1640
 Total energy for state   6:                  -574.23930938 au
    Multiplicity: Singlet
    Trans. Mom.:  0.0012 X   0.0022 Y   0.0013 Z
    Strength   :     0.0001964514
    D(    4) --> V( 1373) amplitude = -0.2493
    D(    4) --> V( 1376) amplitude =  0.8206
    D(    4) --> V( 1382) amplitude =  0.3539

 Excited state   7: excitation energy (eV) =    1022.3819
 Total energy for state   7:                  -574.23130000 au
    Multiplicity: Singlet
    Trans. Mom.:  0.0015 X  -0.0007 Y  -0.0002 Z
    Strength   :     0.0000695157
    D(    4) --> V( 1375) amplitude = -0.4950
    D(    4) --> V( 1377) amplitude =  0.7423
    D(    4) --> V( 1378) amplitude =  0.3398
    D(    4) --> V( 1379) amplitude = -0.2666

 Excited state   8: excitation energy (eV) =    1022.4921
 Total energy for state   8:                  -574.22725112 au
    Multiplicity: Singlet
    Trans. Mom.:  0.0039 X   0.0005 Y  -0.0000 Z
    Strength   :     0.0003881118
    D(    4) --> V( 1375) amplitude = -0.2744
    D(    4) --> V( 1377) amplitude = -0.5979
    D(    4) --> V( 1378) amplitude =  0.6651

 Excited state   9: excitation energy (eV) =    1022.7186
 Total energy for state   9:                  -574.21892896 au
    Multiplicity: Singlet
    Trans. Mom.:  0.0009 X   0.0039 Y  -0.0012 Z
    Strength   :     0.0004435255
    D(    4) --> V( 1375) amplitude = -0.2718
    D(    4) --> V( 1378) amplitude = -0.4644
    D(    4) --> V( 1379) amplitude = -0.5146
    D(    4) --> V( 1381) amplitude =  0.5374

 Excited state  10: excitation energy (eV) =    1023.2441
 Total energy for state  10:                  -574.19961794 au
    Multiplicity: Singlet
    Trans. Mom.: -0.0005 X  -0.0025 Y  -0.0011 Z
    Strength   :     0.0001920478
    D(    4) --> V( 1380) amplitude =  0.9675

 Excited state  11: excitation energy (eV) =    1023.8722
 Total energy for state  11:                  -574.17653273 au
    Multiplicity: Singlet
    Trans. Mom.: -0.0027 X   0.0012 Y   0.0015 Z
    Strength   :     0.0002724735
    D(    4) --> V( 1379) amplitude = -0.3295
    D(    4) --> V( 1382) amplitude =  0.2445
    D(    4) --> V( 1383) amplitude =  0.8558

 Excited state  12: excitation energy (eV) =    1024.7706
 Total energy for state  12:                  -574.14351845 au
    Multiplicity: Singlet
    Trans. Mom.:  0.0013 X   0.0023 Y   0.0004 Z
    Strength   :     0.0001731605
    D(    4) --> V( 1384) amplitude =  0.9411

 Excited state  13: excitation energy (eV) =    1024.9637
 Total energy for state  13:                  -574.13642355 au
    Multiplicity: Singlet
    Trans. Mom.: -0.0039 X  -0.0016 Y  -0.0018 Z
    Strength   :     0.0005327361
    D(    4) --> V( 1381) amplitude = -0.3053
    D(    4) --> V( 1385) amplitude =  0.7722
    D(    4) --> V( 1389) amplitude = -0.3852

 Excited state  14: excitation energy (eV) =    1025.2944
 Total energy for state  14:                  -574.12426860 au
    Multiplicity: Singlet
    Trans. Mom.:  0.0066 X   0.0010 Y   0.0016 Z
    Strength   :     0.0011769590
    D(    4) --> V( 1381) amplitude =  0.2649
    D(    4) --> V( 1385) amplitude =  0.5377
    D(    4) --> V( 1386) amplitude = -0.2189
    D(    4) --> V( 1389) amplitude =  0.6067
    D(    4) --> V( 1390) amplitude =  0.3067

 Excited state  15: excitation energy (eV) =    1026.2745
 Total energy for state  15:                  -574.08824984 au
    Multiplicity: Singlet
    Trans. Mom.: -0.0004 X  -0.0076 Y  -0.0036 Z
    Strength   :     0.0017997293
    D(    4) --> V( 1386) amplitude =  0.7813
    D(    4) --> V( 1387) amplitude =  0.3496
    D(    4) --> V( 1390) amplitude =  0.4281

 Excited state  16: excitation energy (eV) =    1026.3514
 Total energy for state  16:                  -574.08542546 au
    Multiplicity: Singlet
    Trans. Mom.: -0.0017 X  -0.0078 Y  -0.0052 Z
    Strength   :     0.0022607095
    D(    4) --> V( 1382) amplitude =  0.2276
    D(    4) --> V( 1386) amplitude = -0.5157
    D(    4) --> V( 1388) amplitude =  0.2606
    D(    4) --> V( 1389) amplitude = -0.3838
    D(    4) --> V( 1390) amplitude =  0.5769
    D(    4) --> V( 1394) amplitude =  0.2169

 Excited state  17: excitation energy (eV) =    1026.6130
 Total energy for state  17:                  -574.07581123 au
    Multiplicity: Singlet
    Trans. Mom.: -0.0012 X   0.0018 Y   0.0016 Z
    Strength   :     0.0001828549
    D(    4) --> V( 1386) amplitude = -0.2203
    D(    4) --> V( 1387) amplitude =  0.9265
    D(    4) --> V( 1390) amplitude = -0.2675

 Excited state  18: excitation energy (eV) =    1026.8672
 Total energy for state  18:                  -574.06647153 au
    Multiplicity: Singlet
    Trans. Mom.:  0.0005 X  -0.0011 Y   0.0004 Z
    Strength   :     0.0000434644
    D(    4) --> V( 1388) amplitude =  0.9248
    D(    4) --> V( 1389) amplitude =  0.3133

 Excited state  19: excitation energy (eV) =    1027.7867
 Total energy for state  19:                  -574.03268008 au
    Multiplicity: Singlet
    Trans. Mom.: -0.0072 X  -0.0128 Y  -0.0008 Z
    Strength   :     0.0054723983
    D(    4) --> V( 1391) amplitude = -0.2585
    D(    4) --> V( 1392) amplitude =  0.4662
    D(    4) --> V( 1394) amplitude =  0.5729
    D(    4) --> V( 1397) amplitude = -0.4578

 Excited state  20: excitation energy (eV) =    1029.0614
 Total energy for state  20:                  -573.98583567 au
    Multiplicity: Singlet
    Trans. Mom.:  0.0008 X  -0.0003 Y   0.0002 Z
    Strength   :     0.0000215559
    D(    4) --> V( 1398) amplitude =  0.7594
    D(    4) --> V( 1399) amplitude =  0.4409
    D(    4) --> V( 1404) amplitude = -0.2697

 Excited state  21: excitation energy (eV) =    1029.4865
 Total energy for state  21:                  -573.97021400 au
    Multiplicity: Singlet
    Trans. Mom.: -0.0012 X  -0.0008 Y  -0.0003 Z
    Strength   :     0.0000526280
    D(    4) --> V( 1391) amplitude =  0.9369
    D(    4) --> V( 1392) amplitude =  0.2917

 Excited state  22: excitation energy (eV) =    1029.6540
 Total energy for state  22:                  -573.96405860 au
    Multiplicity: Singlet
    Trans. Mom.: -0.0004 X   0.0067 Y   0.0026 Z
    Strength   :     0.0013262225
    D(    4) --> V( 1390) amplitude =  0.2917
    D(    4) --> V( 1392) amplitude =  0.7806
    D(    4) --> V( 1394) amplitude = -0.4691

 Excited state  23: excitation energy (eV) =    1030.2913
 Total energy for state  23:                  -573.94063646 au
    Multiplicity: Singlet
    Trans. Mom.:  0.0034 X  -0.0002 Y  -0.0019 Z
    Strength   :     0.0003806203
    D(    4) --> V( 1393) amplitude =  0.8633
    D(    4) --> V( 1397) amplitude = -0.2344
    D(    4) --> V( 1399) amplitude = -0.2835

 Excited state  24: excitation energy (eV) =    1030.5949
 Total energy for state  24:                  -573.92948091 au
    Multiplicity: Singlet
    Trans. Mom.: -0.0055 X  -0.0019 Y   0.0019 Z
    Strength   :     0.0009580872
    D(    4) --> V( 1393) amplitude =  0.4646
    D(    4) --> V( 1394) amplitude =  0.2747
    D(    4) --> V( 1397) amplitude =  0.3862
    D(    4) --> V( 1398) amplitude = -0.2320
    D(    4) --> V( 1399) amplitude =  0.4346
    D(    4) --> V( 1403) amplitude =  0.3655
    D(    4) --> V( 1405) amplitude =  0.3019

 Excited state  25: excitation energy (eV) =    1031.1597
 Total energy for state  25:                  -573.90872410 au
    Multiplicity: Singlet
    Trans. Mom.:  0.0016 X   0.0015 Y  -0.0013 Z
    Strength   :     0.0001642915
    D(    4) --> V( 1394) amplitude =  0.2729
    D(    4) --> V( 1395) amplitude =  0.7862
    D(    4) --> V( 1397) amplitude =  0.4379

 Excited state  26: excitation energy (eV) =    1031.5585
 Total energy for state  26:                  -573.89406911 au
    Multiplicity: Singlet
    Trans. Mom.:  0.0044 X   0.0009 Y   0.0002 Z
    Strength   :     0.0005120991
    D(    4) --> V( 1396) amplitude =  0.9576
    D(    4) --> V( 1397) amplitude =  0.2319

 Excited state  27: excitation energy (eV) =    1031.7297
 Total energy for state  27:                  -573.88777673 au
    Multiplicity: Singlet
    Trans. Mom.: -0.0039 X  -0.0021 Y   0.0005 Z
    Strength   :     0.0005075933
    D(    4) --> V( 1394) amplitude = -0.3615
    D(    4) --> V( 1395) amplitude =  0.5152
    D(    4) --> V( 1397) amplitude = -0.5027
    D(    4) --> V( 1398) amplitude = -0.2978
    D(    4) --> V( 1399) amplitude =  0.3348
    D(    4) --> V( 1403) amplitude =  0.2398

 Excited state  28: excitation energy (eV) =    1034.2802
 Total energy for state  28:                  -573.79404528 au
    Multiplicity: Singlet
    Trans. Mom.: -0.0015 X   0.0005 Y   0.0004 Z
    Strength   :     0.0000647770
    D(    4) --> V( 1398) amplitude =  0.3833
    D(    4) --> V( 1399) amplitude = -0.3750
    D(    4) --> V( 1401) amplitude =  0.5540
    D(    4) --> V( 1402) amplitude = -0.4709
    D(    4) --> V( 1403) amplitude =  0.3525

 Excited state  29: excitation energy (eV) =    1034.5078
 Total energy for state  29:                  -573.78568275 au
    Multiplicity: Singlet
    Trans. Mom.:  0.0011 X   0.0005 Y   0.0002 Z
    Strength   :     0.0000366155
    D(    4) --> V( 1399) amplitude =  0.3263
    D(    4) --> V( 1400) amplitude =  0.4935
    D(    4) --> V( 1401) amplitude =  0.6394
    D(    4) --> V( 1403) amplitude = -0.3848
    D(    4) --> V( 1405) amplitude = -0.2132

 Excited state  30: excitation energy (eV) =    1034.6591
 Total energy for state  30:                  -573.78012114 au
    Multiplicity: Singlet
    Trans. Mom.: -0.0001 X  -0.0004 Y  -0.0002 Z
    Strength   :     0.0000058854
    D(    4) --> V( 1400) amplitude =  0.8160
    D(    4) --> V( 1401) amplitude = -0.5062
    D(    4) --> V( 1402) amplitude = -0.2394

 Excited state  31: excitation energy (eV) =    1034.7921
 Total energy for state  31:                  -573.77523464 au
    Multiplicity: Singlet
    Trans. Mom.: -0.0006 X   0.0022 Y   0.0015 Z
    Strength   :     0.0001870248
    D(    4) --> V( 1399) amplitude = -0.3183
    D(    4) --> V( 1400) amplitude =  0.2551
    D(    4) --> V( 1402) amplitude =  0.7868
    D(    4) --> V( 1403) amplitude =  0.3284

 Excited state  32: excitation energy (eV) =    1035.1362
 Total energy for state  32:                  -573.76258838 au
    Multiplicity: Singlet
    Trans. Mom.:  0.0003 X   0.0015 Y  -0.0009 Z
    Strength   :     0.0000811817
    D(    4) --> V( 1403) amplitude =  0.4200
    D(    4) --> V( 1404) amplitude =  0.7805
    D(    4) --> V( 1405) amplitude = -0.2848

 Excited state  33: excitation energy (eV) =    1036.1761
 Total energy for state  33:                  -573.72437427 au
    Multiplicity: Singlet
    Trans. Mom.:  0.0020 X  -0.0007 Y  -0.0016 Z
    Strength   :     0.0001753362
    D(    4) --> V( 1403) amplitude = -0.3964
    D(    4) --> V( 1404) amplitude =  0.4748
    D(    4) --> V( 1405) amplitude =  0.7713

 Excited state  34: excitation energy (eV) =    1037.4742
 Total energy for state  34:                  -573.67667101 au
    Multiplicity: Singlet
    Trans. Mom.:  0.0001 X   0.0007 Y   0.0004 Z
    Strength   :     0.0000148531
    D(    4) --> V( 1406) amplitude =  0.9974

 Excited state  35: excitation energy (eV) =    1037.8981
 Total energy for state  35:                  -573.66109050 au
    Multiplicity: Singlet
    Trans. Mom.: -0.0009 X   0.0001 Y   0.0001 Z
    Strength   :     0.0000234357
    D(    4) --> V( 1407) amplitude =  0.9985

 Excited state  36: excitation energy (eV) =    1038.4090
 Total energy for state  36:                  -573.64231756 au
    Multiplicity: Singlet
    Trans. Mom.: -0.0008 X  -0.0044 Y  -0.0013 Z
    Strength   :     0.0005501218
    D(    4) --> V( 1409) amplitude =  0.9612

 Excited state  37: excitation energy (eV) =    1038.7473
 Total energy for state  37:                  -573.62988527 au
    Multiplicity: Singlet
    Trans. Mom.:  0.0003 X  -0.0005 Y  -0.0007 Z
    Strength   :     0.0000195076
    D(    4) --> V( 1408) amplitude =  0.9966

 Excited state  38: excitation energy (eV) =    1040.5230
 Total energy for state  38:                  -573.56462906 au
    Multiplicity: Singlet
    Trans. Mom.:  0.0008 X   0.0068 Y   0.0057 Z
    Strength   :     0.0020016703
    D(    4) --> V( 1411) amplitude =  0.5674
    D(    4) --> V( 1413) amplitude =  0.3394
    D(    4) --> V( 1417) amplitude =  0.6294

 Excited state  39: excitation energy (eV) =    1042.0398
 Total energy for state  39:                  -573.50888528 au
    Multiplicity: Singlet
    Trans. Mom.:  0.0009 X  -0.0024 Y  -0.0029 Z
    Strength   :     0.0003941757
    D(    4) --> V( 1410) amplitude =  0.2761
    D(    4) --> V( 1411) amplitude =  0.7601
    D(    4) --> V( 1413) amplitude = -0.2946
    D(    4) --> V( 1417) amplitude = -0.3928

 Excited state  40: excitation energy (eV) =    1042.3300
 Total energy for state  40:                  -573.49822385 au
    Multiplicity: Singlet
    Trans. Mom.:  0.0000 X   0.0004 Y   0.0007 Z
    Strength   :     0.0000157066
    D(    4) --> V( 1410) amplitude =  0.9596
    D(    4) --> V( 1411) amplitude = -0.2448

 Excited state  41: excitation energy (eV) =    1044.0278
 Total energy for state  41:                  -573.43582958 au
    Multiplicity: Singlet
    Trans. Mom.: -0.0003 X  -0.0001 Y   0.0005 Z
    Strength   :     0.0000090118
    D(    4) --> V( 1412) amplitude =  0.9256
    D(    4) --> V( 1413) amplitude =  0.2866

 Excited state  42: excitation energy (eV) =    1044.4893
 Total energy for state  42:                  -573.41886877 au
    Multiplicity: Singlet
    Trans. Mom.: -0.0007 X  -0.0015 Y  -0.0021 Z
    Strength   :     0.0001889119
    D(    4) --> V( 1412) amplitude = -0.2198
    D(    4) --> V( 1413) amplitude =  0.6946
    D(    4) --> V( 1414) amplitude = -0.3633
    D(    4) --> V( 1416) amplitude =  0.2381
    D(    4) --> V( 1417) amplitude = -0.3683
    D(    4) --> V( 1432) amplitude = -0.2926

 Excited state  43: excitation energy (eV) =    1044.6073
 Total energy for state  43:                  -573.41453501 au
    Multiplicity: Singlet
    Trans. Mom.: -0.0003 X  -0.0003 Y  -0.0004 Z
    Strength   :     0.0000085117
    D(    4) --> V( 1413) amplitude = -0.3769
    D(    4) --> V( 1414) amplitude = -0.5602
    D(    4) --> V( 1415) amplitude =  0.5892
    D(    4) --> V( 1432) amplitude = -0.3280

 Excited state  44: excitation energy (eV) =    1044.7480
 Total energy for state  44:                  -573.40936368 au
    Multiplicity: Singlet
    Trans. Mom.: -0.0009 X   0.0001 Y  -0.0025 Z
    Strength   :     0.0001852506
    D(    4) --> V( 1414) amplitude =  0.5617
    D(    4) --> V( 1415) amplitude =  0.7524
    D(    4) --> V( 1417) amplitude = -0.2650

 Excited state  45: excitation energy (eV) =    1045.0426
 Total energy for state  45:                  -573.39853731 au
    Multiplicity: Singlet
    Trans. Mom.: -0.0019 X  -0.0006 Y  -0.0000 Z
    Strength   :     0.0001040611
    D(    4) --> V( 1414) amplitude = -0.4600
    D(    4) --> V( 1415) amplitude =  0.2410
    D(    4) --> V( 1418) amplitude =  0.3186
    D(    4) --> V( 1422) amplitude =  0.2181
    D(    4) --> V( 1432) amplitude =  0.6485

 Excited state  46: excitation energy (eV) =    1045.3130
 Total energy for state  46:                  -573.38859952 au
    Multiplicity: Singlet
    Trans. Mom.: -0.0000 X  -0.0007 Y   0.0012 Z
    Strength   :     0.0000517736
    D(    4) --> V( 1416) amplitude =  0.9197
    D(    4) --> V( 1417) amplitude =  0.3259

 Excited state  47: excitation energy (eV) =    1045.6716
 Total energy for state  47:                  -573.37541922 au
    Multiplicity: Singlet
    Trans. Mom.:  0.0018 X  -0.0010 Y   0.0036 Z
    Strength   :     0.0004351661
    D(    4) --> V( 1418) amplitude =  0.7877
    D(    4) --> V( 1435) amplitude =  0.3131
    D(    4) --> V( 1438) amplitude = -0.2237

 Excited state  48: excitation energy (eV) =    1046.1514
 Total energy for state  48:                  -573.35779028 au
    Multiplicity: Singlet
    Trans. Mom.: -0.0001 X  -0.0001 Y   0.0011 Z
    Strength   :     0.0000294326
    D(    4) --> V( 1418) amplitude = -0.2615
    D(    4) --> V( 1419) amplitude =  0.9387

 Excited state  49: excitation energy (eV) =    1046.3582
 Total energy for state  49:                  -573.35018705 au
    Multiplicity: Singlet
    Trans. Mom.:  0.0004 X  -0.0003 Y   0.0021 Z
    Strength   :     0.0001194086
    D(    4) --> V( 1420) amplitude =  0.9251

 Excited state  50: excitation energy (eV) =    1046.7101
 Total energy for state  50:                  -573.33725515 au
    Multiplicity: Singlet
    Trans. Mom.:  0.0019 X  -0.0010 Y   0.0036 Z
    Strength   :     0.0004533044
    D(    4) --> V( 1418) amplitude = -0.3529
    D(    4) --> V( 1419) amplitude = -0.2733
    D(    4) --> V( 1420) amplitude = -0.3368
    D(    4) --> V( 1432) amplitude =  0.2743
    D(    4) --> V( 1434) amplitude = -0.2614
    D(    4) --> V( 1435) amplitude =  0.5149
    D(    4) --> V( 1438) amplitude = -0.3311

 Excited state  51: excitation energy (eV) =    1047.2134
 Total energy for state  51:                  -573.31876145 au
    Multiplicity: Singlet
    Trans. Mom.: -0.0012 X  -0.0011 Y  -0.0006 Z
    Strength   :     0.0000791647
    D(    4) --> V( 1421) amplitude =  0.9711

 Excited state  52: excitation energy (eV) =    1047.3832
 Total energy for state  52:                  -573.31251903 au
    Multiplicity: Singlet
    Trans. Mom.:  0.0001 X  -0.0007 Y   0.0013 Z
    Strength   :     0.0000590254
    D(    4) --> V( 1422) amplitude =  0.9405
    D(    4) --> V( 1432) amplitude = -0.2241

 Excited state  53: excitation energy (eV) =    1047.7875
 Total energy for state  53:                  -573.29766469 au
    Multiplicity: Singlet
    Trans. Mom.:  0.0020 X  -0.0021 Y  -0.0019 Z
    Strength   :     0.0003056999
    D(    4) --> V( 1423) amplitude = -0.3414
    D(    4) --> V( 1427) amplitude = -0.3210
    D(    4) --> V( 1429) amplitude =  0.2249
    D(    4) --> V( 1435) amplitude =  0.2177
    D(    4) --> V( 1436) amplitude =  0.4194
    D(    4) --> V( 1438) amplitude =  0.4436
    D(    4) --> V( 1442) amplitude = -0.3626

 Excited state  54: excitation energy (eV) =    1048.2675
 Total energy for state  54:                  -573.28002286 au
    Multiplicity: Singlet
    Trans. Mom.:  0.0018 X  -0.0006 Y  -0.0000 Z
    Strength   :     0.0000921201
    D(    4) --> V( 1423) amplitude =  0.8812
    D(    4) --> V( 1435) amplitude =  0.2499

 Excited state  55: excitation energy (eV) =    1048.6156
 Total energy for state  55:                  -573.26722988 au
    Multiplicity: Singlet
    Trans. Mom.: -0.0002 X   0.0001 Y  -0.0006 Z
    Strength   :     0.0000093242
    D(    4) --> V( 1424) amplitude =  0.9793

 Excited state  56: excitation energy (eV) =    1048.8547
 Total energy for state  56:                  -573.25844487 au
    Multiplicity: Singlet
    Trans. Mom.:  0.0004 X   0.0010 Y   0.0027 Z
    Strength   :     0.0002171288
    D(    4) --> V( 1425) amplitude =  0.8799
    D(    4) --> V( 1427) amplitude = -0.3435

 Excited state  57: excitation energy (eV) =    1049.0755
 Total energy for state  57:                  -573.25032879 au
    Multiplicity: Singlet
    Trans. Mom.:  0.0002 X  -0.0020 Y  -0.0030 Z
    Strength   :     0.0003427911
    D(    4) --> V( 1425) amplitude =  0.4477
    D(    4) --> V( 1427) amplitude =  0.7836
    D(    4) --> V( 1438) amplitude =  0.2375

 Excited state  58: excitation energy (eV) =    1049.2867
 Total energy for state  58:                  -573.24256919 au
    Multiplicity: Singlet
    Trans. Mom.:  0.0001 X   0.0003 Y   0.0013 Z
    Strength   :     0.0000492125
    D(    4) --> V( 1426) amplitude =  0.9297
    D(    4) --> V( 1427) amplitude = -0.2396

 Excited state  59: excitation energy (eV) =    1050.0060
 Total energy for state  59:                  -573.21613531 au
    Multiplicity: Singlet
    Trans. Mom.: -0.0003 X   0.0000 Y   0.0000 Z
    Strength   :     0.0000026607
    D(    4) --> V( 1428) amplitude =  0.9519
    D(    4) --> V( 1429) amplitude = -0.2584

 Excited state  60: excitation energy (eV) =    1050.1784
 Total energy for state  60:                  -573.20979775 au
    Multiplicity: Singlet
    Trans. Mom.:  0.0009 X   0.0005 Y   0.0002 Z
    Strength   :     0.0000279084
    D(    4) --> V( 1429) amplitude =  0.2257
    D(    4) --> V( 1430) amplitude =  0.9615

 Excited state  61: excitation energy (eV) =    1050.2203
 Total energy for state  61:                  -573.20825981 au
    Multiplicity: Singlet
    Trans. Mom.:  0.0001 X  -0.0008 Y   0.0012 Z
    Strength   :     0.0000546200
    D(    4) --> V( 1428) amplitude =  0.2454
    D(    4) --> V( 1429) amplitude =  0.8548
    D(    4) --> V( 1430) amplitude = -0.2569
    D(    4) --> V( 1432) amplitude =  0.2617

 Excited state  62: excitation energy (eV) =    1050.6632
 Total energy for state  62:                  -573.19198249 au
    Multiplicity: Singlet
    Trans. Mom.: -0.0017 X  -0.0010 Y  -0.0006 Z
    Strength   :     0.0001080167
    D(    4) --> V( 1431) amplitude =  0.9742

 Excited state  63: excitation energy (eV) =    1051.5776
 Total energy for state  63:                  -573.15838034 au
    Multiplicity: Singlet
    Trans. Mom.:  0.0001 X  -0.0004 Y   0.0005 Z
    Strength   :     0.0000111863
    D(    4) --> V( 1433) amplitude =  0.9927

 Excited state  64: excitation energy (eV) =    1052.0958
 Total energy for state  64:                  -573.13933603 au
    Multiplicity: Singlet
    Trans. Mom.: -0.0015 X   0.0015 Y  -0.0031 Z
    Strength   :     0.0003593622
    D(    4) --> V( 1434) amplitude =  0.8066
    D(    4) --> V( 1435) amplitude =  0.3504
    D(    4) --> V( 1451) amplitude = -0.2169

 Excited state  65: excitation energy (eV) =    1052.2393
 Total energy for state  65:                  -573.13406248 au
    Multiplicity: Singlet
    Trans. Mom.: -0.0026 X   0.0031 Y  -0.0057 Z
    Strength   :     0.0012510592
    D(    4) --> V( 1434) amplitude = -0.4374
    D(    4) --> V( 1436) amplitude =  0.4465
    D(    4) --> V( 1442) amplitude =  0.3611
    D(    4) --> V( 1449) amplitude = -0.2500
    D(    4) --> V( 1451) amplitude = -0.3751
    D(    4) --> V( 1452) amplitude =  0.2145

 Excited state  66: excitation energy (eV) =    1052.8966
 Total energy for state  66:                  -573.10990856 au
    Multiplicity: Singlet
    Trans. Mom.:  0.0003 X  -0.0031 Y   0.0010 Z
    Strength   :     0.0002728264
    D(    4) --> V( 1437) amplitude =  0.9009
    D(    4) --> V( 1438) amplitude =  0.2477

 Excited state  67: excitation energy (eV) =    1053.1000
 Total energy for state  67:                  -573.10243353 au
    Multiplicity: Singlet
    Trans. Mom.:  0.0018 X  -0.0031 Y   0.0032 Z
    Strength   :     0.0005983348
    D(    4) --> V( 1435) amplitude = -0.2985
    D(    4) --> V( 1436) amplitude =  0.5535
    D(    4) --> V( 1438) amplitude = -0.5214
    D(    4) --> V( 1442) amplitude = -0.3227
    D(    4) --> V( 1444) amplitude =  0.2217
    D(    4) --> V( 1451) amplitude =  0.2260

 Excited state  68: excitation energy (eV) =    1053.8239
 Total energy for state  68:                  -573.07583035 au
    Multiplicity: Singlet
    Trans. Mom.:  0.0005 X   0.0027 Y   0.0008 Z
    Strength   :     0.0002137481
    D(    4) --> V( 1439) amplitude =  0.4097
    D(    4) --> V( 1440) amplitude =  0.2725
    D(    4) --> V( 1441) amplitude =  0.6107
    D(    4) --> V( 1443) amplitude = -0.2180
    D(    4) --> V( 1444) amplitude = -0.4202

 Excited state  69: excitation energy (eV) =    1054.0987
 Total energy for state  69:                  -573.06573119 au
    Multiplicity: Singlet
    Trans. Mom.: -0.0020 X  -0.0017 Y   0.0008 Z
    Strength   :     0.0001904805
    D(    4) --> V( 1435) amplitude =  0.2923
    D(    4) --> V( 1436) amplitude =  0.2963
    D(    4) --> V( 1437) amplitude = -0.2240
    D(    4) --> V( 1440) amplitude = -0.2262
    D(    4) --> V( 1442) amplitude =  0.5864
    D(    4) --> V( 1443) amplitude = -0.3096
    D(    4) --> V( 1444) amplitude =  0.2330
    D(    4) --> V( 1446) amplitude = -0.2930

 Excited state  70: excitation energy (eV) =    1054.3065
 Total energy for state  70:                  -573.05809375 au
    Multiplicity: Singlet
    Trans. Mom.:  0.0003 X  -0.0001 Y  -0.0004 Z
    Strength   :     0.0000066544
    D(    4) --> V( 1439) amplitude =  0.8956
    D(    4) --> V( 1441) amplitude = -0.3774

 Excited state  71: excitation energy (eV) =    1054.4804
 Total energy for state  71:                  -573.05170230 au
    Multiplicity: Singlet
    Trans. Mom.: -0.0007 X  -0.0008 Y   0.0001 Z
    Strength   :     0.0000316129
    D(    4) --> V( 1440) amplitude =  0.9172
    D(    4) --> V( 1441) amplitude = -0.3177

 Excited state  72: excitation energy (eV) =    1054.8169
 Total energy for state  72:                  -573.03933616 au
    Multiplicity: Singlet
    Trans. Mom.:  0.0004 X  -0.0017 Y   0.0004 Z
    Strength   :     0.0000855260
    D(    4) --> V( 1441) amplitude =  0.5318
    D(    4) --> V( 1443) amplitude =  0.6165
    D(    4) --> V( 1444) amplitude =  0.5028

 Excited state  73: excitation energy (eV) =    1055.2118
 Total energy for state  73:                  -573.02482597 au
    Multiplicity: Singlet
    Trans. Mom.:  0.0006 X   0.0012 Y   0.0033 Z
    Strength   :     0.0003296616
    D(    4) --> V( 1441) amplitude = -0.2420
    D(    4) --> V( 1443) amplitude =  0.6396
    D(    4) --> V( 1444) amplitude = -0.5452
    D(    4) --> V( 1446) amplitude = -0.2977

 Excited state  74: excitation energy (eV) =    1056.7388
 Total energy for state  74:                  -572.96870793 au
    Multiplicity: Singlet
    Trans. Mom.:  0.0013 X  -0.0004 Y   0.0000 Z
    Strength   :     0.0000473367
    D(    4) --> V( 1445) amplitude = -0.5555
    D(    4) --> V( 1446) amplitude =  0.7302
    D(    4) --> V( 1451) amplitude =  0.2222

 Excited state  75: excitation energy (eV) =    1056.7773
 Total energy for state  75:                  -572.96729380 au
    Multiplicity: Singlet
    Trans. Mom.:  0.0005 X  -0.0012 Y   0.0005 Z
    Strength   :     0.0000501630
    D(    4) --> V( 1445) amplitude =  0.7957
    D(    4) --> V( 1446) amplitude =  0.3423
    D(    4) --> V( 1449) amplitude =  0.2390
    D(    4) --> V( 1451) amplitude =  0.3000

 Excited state  76: excitation energy (eV) =    1058.4004
 Total energy for state  76:                  -572.90764583 au
    Multiplicity: Singlet
    Trans. Mom.: -0.0004 X  -0.0004 Y  -0.0002 Z
    Strength   :     0.0000080061
    D(    4) --> V( 1448) amplitude =  0.9777

 Excited state  77: excitation energy (eV) =    1058.5530
 Total energy for state  77:                  -572.90203752 au
    Multiplicity: Singlet
    Trans. Mom.: -0.0007 X   0.0004 Y  -0.0002 Z
    Strength   :     0.0000177914
    D(    4) --> V( 1447) amplitude =  0.9142
    D(    4) --> V( 1449) amplitude = -0.2751
    D(    4) --> V( 1451) amplitude = -0.2408

 Excited state  78: excitation energy (eV) =    1058.7916
 Total energy for state  78:                  -572.89327017 au
    Multiplicity: Singlet
    Trans. Mom.:  0.0008 X   0.0005 Y   0.0002 Z
    Strength   :     0.0000236040
    D(    4) --> V( 1450) amplitude =  0.9677

 Excited state  79: excitation energy (eV) =    1058.8759
 Total energy for state  79:                  -572.89017361 au
    Multiplicity: Singlet
    Trans. Mom.: -0.0010 X  -0.0005 Y  -0.0007 Z
    Strength   :     0.0000436595
    D(    4) --> V( 1449) amplitude =  0.7711
    D(    4) --> V( 1451) amplitude = -0.4650
    D(    4) --> V( 1452) amplitude =  0.2185
    D(    4) --> V( 1454) amplitude = -0.2248

 Excited state  80: excitation energy (eV) =    1060.4280
 Total energy for state  80:                  -572.83313453 au
    Multiplicity: Singlet
    Trans. Mom.: -0.0016 X  -0.0008 Y  -0.0003 Z
    Strength   :     0.0000833195
    D(    4) --> V( 1451) amplitude =  0.4516
    D(    4) --> V( 1452) amplitude =  0.6351
    D(    4) --> V( 1454) amplitude = -0.5683

 Excited state  81: excitation energy (eV) =    1061.1487
 Total energy for state  81:                  -572.80664777 au
    Multiplicity: Singlet
    Trans. Mom.:  0.0009 X   0.0005 Y  -0.0006 Z
    Strength   :     0.0000371908
    D(    4) --> V( 1452) amplitude =  0.6235
    D(    4) --> V( 1454) amplitude =  0.7098

 Excited state  82: excitation energy (eV) =    1061.9431
 Total energy for state  82:                  -572.77745559 au
    Multiplicity: Singlet
    Trans. Mom.: -0.0003 X  -0.0000 Y  -0.0002 Z
    Strength   :     0.0000024572
    D(    4) --> V( 1453) amplitude =  0.9998

 Excited state  83: excitation energy (eV) =    1066.5750
 Total energy for state  83:                  -572.60723484 au
    Multiplicity: Singlet
    Trans. Mom.: -0.0001 X   0.0006 Y   0.0001 Z
    Strength   :     0.0000088188
    D(    4) --> V( 1455) amplitude =  0.9912

 Excited state  84: excitation energy (eV) =    1069.0336
 Total energy for state  84:                  -572.51688438 au
    Multiplicity: Singlet
    Trans. Mom.: -0.0001 X  -0.0002 Y   0.0002 Z
    Strength   :     0.0000016442
    D(    4) --> V( 1456) amplitude =  0.9985

 Excited state  85: excitation energy (eV) =    1079.5481
 Total energy for state  85:                  -572.13048199 au
    Multiplicity: Singlet
    Trans. Mom.: -0.0009 X   0.0000 Y  -0.0011 Z
    Strength   :     0.0000541293
    D(    4) --> V( 1457) amplitude =  0.9997

 Excited state  86: excitation energy (eV) =    1080.6843
 Total energy for state  86:                  -572.08872655 au
    Multiplicity: Singlet
    Trans. Mom.: -0.0034 X   0.0067 Y   0.0038 Z
    Strength   :     0.0018715955
    D(    4) --> V( 1458) amplitude =  0.9016
    D(    4) --> V( 1469) amplitude =  0.3347

 Excited state  87: excitation energy (eV) =    1081.6161
 Total energy for state  87:                  -572.05448527 au
    Multiplicity: Singlet
    Trans. Mom.: -0.0034 X   0.0106 Y   0.0053 Z
    Strength   :     0.0039944597
    D(    4) --> V( 1458) amplitude = -0.3828
    D(    4) --> V( 1459) amplitude = -0.4621
    D(    4) --> V( 1460) amplitude =  0.3354
    D(    4) --> V( 1468) amplitude = -0.2599
    D(    4) --> V( 1469) amplitude =  0.5862

 Excited state  88: excitation energy (eV) =    1081.7835
 Total energy for state  88:                  -572.04833177 au
    Multiplicity: Singlet
    Trans. Mom.: -0.0016 X   0.0057 Y   0.0028 Z
    Strength   :     0.0011255849
    D(    4) --> V( 1459) amplitude =  0.8827
    D(    4) --> V( 1469) amplitude =  0.3241

 Excited state  89: excitation energy (eV) =    1082.2698
 Total energy for state  89:                  -572.03046141 au
    Multiplicity: Singlet
    Trans. Mom.:  0.0037 X   0.0021 Y  -0.0011 Z
    Strength   :     0.0005093732
    D(    4) --> V( 1460) amplitude =  0.8138
    D(    4) --> V( 1462) amplitude =  0.4863
    D(    4) --> V( 1470) amplitude =  0.2650

 Excited state  90: excitation energy (eV) =    1082.5737
 Total energy for state  90:                  -572.01929501 au
    Multiplicity: Singlet
    Trans. Mom.:  0.0007 X   0.0023 Y   0.0010 Z
    Strength   :     0.0001738818
    D(    4) --> V( 1461) amplitude =  0.9722

 Excited state  91: excitation energy (eV) =    1082.8384
 Total energy for state  91:                  -572.00956642 au
    Multiplicity: Singlet
    Trans. Mom.:  0.0007 X   0.0078 Y   0.0026 Z
    Strength   :     0.0017996043
    D(    4) --> V( 1460) amplitude = -0.4171
    D(    4) --> V( 1461) amplitude = -0.2195
    D(    4) --> V( 1462) amplitude =  0.7816
    D(    4) --> V( 1469) amplitude =  0.3300

 Excited state  92: excitation energy (eV) =    1084.0149
 Total energy for state  92:                  -571.96633033 au
    Multiplicity: Singlet
    Trans. Mom.:  0.0029 X   0.0025 Y  -0.0005 Z
    Strength   :     0.0004046921
    D(    4) --> V( 1463) amplitude =  0.9334
    D(    4) --> V( 1470) amplitude =  0.2677

 Excited state  93: excitation energy (eV) =    1084.3645
 Total energy for state  93:                  -571.95348466 au
    Multiplicity: Singlet
    Trans. Mom.: -0.0066 X  -0.0096 Y  -0.0005 Z
    Strength   :     0.0036341339
    D(    4) --> V( 1463) amplitude =  0.3131
    D(    4) --> V( 1464) amplitude =  0.7050
    D(    4) --> V( 1470) amplitude = -0.5532

 Excited state  94: excitation energy (eV) =    1084.7906
 Total energy for state  94:                  -571.93782410 au
    Multiplicity: Singlet
    Trans. Mom.:  0.0066 X   0.0100 Y   0.0004 Z
    Strength   :     0.0037865299
    D(    4) --> V( 1464) amplitude =  0.6863
    D(    4) --> V( 1470) amplitude =  0.6436

 Excited state  95: excitation energy (eV) =    1086.0599
 Total energy for state  95:                  -571.89117853 au
    Multiplicity: Singlet
    Trans. Mom.: -0.0022 X  -0.0019 Y   0.0007 Z
    Strength   :     0.0002381368
    D(    4) --> V( 1465) amplitude =  0.9752
    D(    4) --> V( 1470) amplitude = -0.2168

 Excited state  96: excitation energy (eV) =    1086.5486
 Total energy for state  96:                  -571.87321874 au
    Multiplicity: Singlet
    Trans. Mom.: -0.0002 X   0.0002 Y   0.0002 Z
    Strength   :     0.0000028840
    D(    4) --> V( 1466) amplitude =  0.9947

 Excited state  97: excitation energy (eV) =    1087.0579
 Total energy for state  97:                  -571.85450063 au
    Multiplicity: Singlet
    Trans. Mom.:  0.0003 X   0.0008 Y   0.0000 Z
    Strength   :     0.0000222106
    D(    4) --> V( 1467) amplitude =  0.9558

 Excited state  98: excitation energy (eV) =    1088.0895
 Total energy for state  98:                  -571.81659326 au
    Multiplicity: Singlet
    Trans. Mom.:  0.0004 X   0.0007 Y   0.0002 Z
    Strength   :     0.0000167923
    D(    4) --> V( 1468) amplitude =  0.8904
    D(    4) --> V( 1469) amplitude =  0.4411

 Excited state  99: excitation energy (eV) =    1093.4144
 Total energy for state  99:                  -571.62090571 au
    Multiplicity: Singlet
    Trans. Mom.: -0.0001 X   0.0001 Y   0.0000 Z
    Strength   :     0.0000007643
    D(    4) --> V( 1471) amplitude =  0.9999

 Excited state 100: excitation energy (eV) =    1101.9960
 Total energy for state 100:                  -571.30553874 au
    Multiplicity: Singlet
    Trans. Mom.: -0.0004 X  -0.0000 Y   0.0001 Z
    Strength   :     0.0000034208
    D(    4) --> V( 1472) amplitude =  1.0000

 Excited state 101: excitation energy (eV) =    1114.1987
 Total energy for state 101:                  -570.85709625 au
    Multiplicity: Singlet
    Trans. Mom.:  0.0075 X  -0.0008 Y  -0.0030 Z
    Strength   :     0.0017886926
    D(    4) --> V( 1474) amplitude =  0.8868
    D(    4) --> V( 1478) amplitude =  0.2763

 Excited state 102: excitation energy (eV) =    1114.9790
 Total energy for state 102:                  -570.82842175 au
    Multiplicity: Singlet
    Trans. Mom.:  0.0001 X   0.0002 Y   0.0002 Z
    Strength   :     0.0000025701
    D(    4) --> V( 1473) amplitude =  0.9807

 Excited state 103: excitation energy (eV) =    1115.8965
 Total energy for state 103:                  -570.79470295 au
    Multiplicity: Singlet
    Trans. Mom.: -0.0017 X  -0.0003 Y   0.0002 Z
    Strength   :     0.0000817780
    D(    4) --> V( 1475) amplitude =  0.9666

 Excited state 104: excitation energy (eV) =    1116.2484
 Total energy for state 104:                  -570.78177299 au
    Multiplicity: Singlet
    Trans. Mom.:  0.0047 X   0.0002 Y  -0.0018 Z
    Strength   :     0.0006905081
    D(    4) --> V( 1474) amplitude = -0.3301
    D(    4) --> V( 1475) amplitude =  0.2376
    D(    4) --> V( 1476) amplitude =  0.6751
    D(    4) --> V( 1478) amplitude =  0.4912
    D(    4) --> V( 1484) amplitude = -0.2555

 Excited state 105: excitation energy (eV) =    1116.5160
 Total energy for state 105:                  -570.77193713 au
    Multiplicity: Singlet
    Trans. Mom.:  0.0019 X  -0.0006 Y   0.0007 Z
    Strength   :     0.0001211953
    D(    4) --> V( 1476) amplitude = -0.4250
    D(    4) --> V( 1477) amplitude =  0.8578

 Excited state 106: excitation energy (eV) =    1116.7571
 Total energy for state 106:                  -570.76307845 au
    Multiplicity: Singlet
    Trans. Mom.:  0.0024 X   0.0002 Y  -0.0020 Z
    Strength   :     0.0002740443
    D(    4) --> V( 1476) amplitude = -0.5734
    D(    4) --> V( 1477) amplitude = -0.4300
    D(    4) --> V( 1478) amplitude =  0.6101

 Excited state 107: excitation energy (eV) =    1117.2535
 Total energy for state 107:                  -570.74483390 au
    Multiplicity: Singlet
    Trans. Mom.:  0.0006 X   0.0004 Y   0.0008 Z
    Strength   :     0.0000328803
    D(    4) --> V( 1479) amplitude =  0.9256
    D(    4) --> V( 1480) amplitude =  0.2839

 Excited state 108: excitation energy (eV) =    1117.4898
 Total energy for state 108:                  -570.73614974 au
    Multiplicity: Singlet
    Trans. Mom.: -0.0006 X   0.0008 Y  -0.0018 Z
    Strength   :     0.0001128339
    D(    4) --> V( 1480) amplitude = -0.6378
    D(    4) --> V( 1481) amplitude =  0.6811

 Excited state 109: excitation energy (eV) =    1117.7929
 Total energy for state 109:                  -570.72501175 au
    Multiplicity: Singlet
    Trans. Mom.:  0.0007 X   0.0007 Y  -0.0002 Z
    Strength   :     0.0000304233
    D(    4) --> V( 1480) amplitude =  0.6556
    D(    4) --> V( 1481) amplitude =  0.6961

 Excited state 110: excitation energy (eV) =    1118.2156
 Total energy for state 110:                  -570.70947705 au
    Multiplicity: Singlet
    Trans. Mom.:  0.0017 X  -0.0002 Y  -0.0019 Z
    Strength   :     0.0001812602
    D(    4) --> V( 1478) amplitude = -0.3568
    D(    4) --> V( 1482) amplitude =  0.5372
    D(    4) --> V( 1483) amplitude =  0.6356
    D(    4) --> V( 1484) amplitude = -0.3667

 Excited state 111: excitation energy (eV) =    1118.4749
 Total energy for state 111:                  -570.69994732 au
    Multiplicity: Singlet
    Trans. Mom.: -0.0023 X  -0.0004 Y   0.0004 Z
    Strength   :     0.0001580109
    D(    4) --> V( 1482) amplitude =  0.4326
    D(    4) --> V( 1483) amplitude =  0.2398
    D(    4) --> V( 1484) amplitude =  0.8249

 Excited state 112: excitation energy (eV) =    1118.5218
 Total energy for state 112:                  -570.69822434 au
    Multiplicity: Singlet
    Trans. Mom.: -0.0000 X  -0.0002 Y   0.0005 Z
    Strength   :     0.0000081703
    D(    4) --> V( 1482) amplitude =  0.7094
    D(    4) --> V( 1483) amplitude = -0.6757

 ---------------------------------------------------
  SETman timing summary (seconds)
  CPU time            287104.50s
  System time              0.01s
  Wall time            71961.32s
================================================================================
                             Excited State Analysis
================================================================================

  Ground State (Reference) :
  -------------------------
    NOs
      Occupation of frontier NOs:
         0.0000   0.0000   2.0000   2.0000
      Number of electrons: 80.000000
      Number of unpaired electrons: n_u = -0.00000, n_u,nl =  0.00000
    
    Mulliken Population Analysis (State DM)
    Atom      Charge (e)
    --------------------
     1 O       -0.757621
     2 H        0.372094
     3 H        0.378298
     4 O       -0.691667
     5 H        0.307445
     6 H        0.372133
     7 O       -0.651827
     8 H        0.390335
     9 H        0.254883
    10 O       -0.665257
    11 H        0.285367
    12 H        0.367782
    13 O       -0.603612
    14 H        0.325252
    15 H        0.261443
    16 O       -0.711706
    17 H        0.315328
    18 H        0.406537
    19 O       -0.658848
    20 H        0.345616
    21 H        0.341751
    22 O       -0.673301
    23 H        0.328397
    24 H        0.361178
    --------------------
    Sum:       -0.000000
    
    Multipole moment analysis of the density matrix
      Molecular charge:                      -0.000000
      Number of electrons:                   80.000000
        Center of electronic charge [Ang]: [  0.000891,  -0.003732,  -0.000494]
      Total nuclear charge:                  80.000000
        Center of nuclear charge [Ang]:    [  0.018307,  -0.023054,  -0.000128]
      Dipole moment [D]:                     9.996541
        Cartesian components [D]:          [  6.692405,  -7.424467,   0.140890]
      RMS size of the density [Ang]:         3.177245
        Cartesian components [Ang]:        [  1.740624,   2.261303,   1.397006]
    

  ----------------------------------------------------------------------------
                  Analysis of Unrelaxed Density Matrices
  ----------------------------------------------------------------------------

  Singlet 1 :
  -------------------------
    NOs
      Occupation of frontier NOs:
         0.0000   1.0000   1.0000   2.0000
      Number of electrons: 80.000000
      Number of unpaired electrons: n_u =  2.00000, n_u,nl =  2.00000
      NO participation ratio (PR_NO):  2.000000
    
    NDOs
      Leading detachment eigenvalues:
        -1.0000  -0.0000
      Leading attachment eigenvalues:
         1.0000   0.0000
      Number of detached / attached electrons: p_D =  1.0000, p_A =  1.0000
      Number of involved orbitals: PR_D =  1.000000, PR_A =  1.000000
    
    Mulliken Population Analysis (State/Difference DM)
    Atom      Charge (e)              h+              e-           Del q
    --------------------------------------------------------------------
     1 O       -0.296678        0.992119       -0.531176        0.460942
     2 H        0.183447        0.003316       -0.191962       -0.188647
     3 H        0.276925        0.004504       -0.105877       -0.101373
     4 O       -0.700473       -0.000000       -0.008806       -0.008806
     5 H        0.306981       -0.000000       -0.000463       -0.000463
     6 H        0.371749        0.000000       -0.000384       -0.000384
     7 O       -0.671522        0.000000       -0.019695       -0.019695
     8 H        0.389229       -0.000000       -0.001106       -0.001106
     9 H        0.253600        0.000000       -0.001283       -0.001283
    10 O       -0.669869        0.000001       -0.004613       -0.004612
    11 H        0.283672        0.000000       -0.001695       -0.001695
    12 H        0.366818        0.000022       -0.000986       -0.000964
    13 O       -0.642284       -0.000004       -0.038668       -0.038672
    14 H        0.303568        0.000035       -0.021719       -0.021684
    15 H        0.259611       -0.000000       -0.001831       -0.001831
    16 O       -0.715565        0.000002       -0.003860       -0.003859
    17 H        0.314745        0.000000       -0.000583       -0.000583
    18 H        0.406051        0.000000       -0.000487       -0.000486
    19 O       -0.697849        0.000005       -0.039005       -0.039000
    20 H        0.337002        0.000000       -0.008614       -0.008614
    21 H        0.330342        0.000000       -0.011409       -0.011409
    22 O       -0.677853        0.000000       -0.004553       -0.004552
    23 H        0.327901        0.000000       -0.000496       -0.000496
    24 H        0.360451        0.000000       -0.000727       -0.000727
    --------------------------------------------------------------------
    Sum:       -0.000000        1.000000       -1.000000       -0.000000
    
    Multipole moment analysis of the density matrix
      Molecular charge:                      -0.000000
      Number of electrons:                   80.000000
        Center of electronic charge [Ang]: [  0.002215,  -0.006238,  -0.000449]
      Total nuclear charge:                  80.000000
        Center of nuclear charge [Ang]:    [  0.018307,  -0.023054,  -0.000127]
      Dipole moment [D]:                     8.944382
        Cartesian components [D]:          [  6.183518,  -6.461487,   0.123536]
      RMS size of the density [Ang]:         3.181495
        Cartesian components [Ang]:        [  1.741827,   2.264746,   1.399599]
    
    Exciton analysis of the difference density matrix
      <r_h> [Ang]:                  [ -0.155243,  -0.173983,  -0.054373]
      <r_e> [Ang]:                  [ -0.049295,  -0.374470,  -0.050760]
      |<r_e - r_h>| [Ang]:            0.226788
      Hole size [Ang]:                0.122777
        Cartesian components [Ang]: [  0.070887,   0.070891,   0.070878]
      Electron size [Ang]:            1.446118
        Cartesian components [Ang]: [  0.601761,   1.069365,   0.765244]

  Singlet 2 :
  -------------------------
    NOs
      Occupation of frontier NOs:
         0.0000   1.0000   1.0000   2.0000
      Number of electrons: 80.000000
      Number of unpaired electrons: n_u =  2.00000, n_u,nl =  2.00000
      NO participation ratio (PR_NO):  2.000000
    
    NDOs
      Leading detachment eigenvalues:
        -1.0000  -0.0000
      Leading attachment eigenvalues:
         1.0000   0.0000
      Number of detached / attached electrons: p_D =  1.0000, p_A =  1.0000
      Number of involved orbitals: PR_D =  1.000000, PR_A =  1.000000
    
    Mulliken Population Analysis (State/Difference DM)
    Atom      Charge (e)              h+              e-           Del q
    --------------------------------------------------------------------
     1 O       -0.317871        0.992119       -0.552369        0.439750
     2 H        0.347192        0.003316       -0.028218       -0.024902
     3 H        0.363527        0.004504       -0.019275       -0.014772
     4 O       -0.694200       -0.000000       -0.002533       -0.002533
     5 H        0.307339       -0.000000       -0.000106       -0.000106
     6 H        0.371917        0.000000       -0.000216       -0.000216
     7 O       -0.654377        0.000000       -0.002550       -0.002550
     8 H        0.389977       -0.000000       -0.000357       -0.000357
     9 H        0.254735        0.000000       -0.000147       -0.000147
    10 O       -0.780855        0.000001       -0.115599       -0.115598
    11 H        0.251009        0.000000       -0.034358       -0.034358
    12 H        0.348078        0.000022       -0.019726       -0.019704
    13 O       -0.776671       -0.000004       -0.173056       -0.173060
    14 H        0.310738        0.000035       -0.014549       -0.014514
    15 H        0.240276       -0.000000       -0.021166       -0.021166
    16 O       -0.718019        0.000002       -0.006314       -0.006312
    17 H        0.313951        0.000000       -0.001377       -0.001377
    18 H        0.405132        0.000000       -0.001406       -0.001406
    19 O       -0.663033        0.000005       -0.004190       -0.004185
    20 H        0.344926        0.000000       -0.000691       -0.000691
    21 H        0.341080        0.000000       -0.000671       -0.000671
    22 O       -0.674227        0.000000       -0.000927       -0.000927
    23 H        0.328294        0.000000       -0.000103       -0.000103
    24 H        0.361082        0.000000       -0.000096       -0.000096
    --------------------------------------------------------------------
    Sum:        0.000000        1.000000       -1.000000        0.000000
    
    Multipole moment analysis of the density matrix
      Molecular charge:                      0.000000
      Number of electrons:                   80.000000
        Center of electronic charge [Ang]: [ -0.004142,   0.000224,   0.002143]
      Total nuclear charge:                  80.000000
        Center of nuclear charge [Ang]:    [  0.018308,  -0.023054,  -0.000128]
      Dipole moment [D]:                     12.457065
        Cartesian components [D]:          [  8.626186,  -8.944604,  -0.872609]
      RMS size of the density [Ang]:         3.184360
        Cartesian components [Ang]:        [  1.745368,   2.262547,   1.405249]
    
    Exciton analysis of the difference density matrix
      <r_h> [Ang]:                  [ -0.155243,  -0.173983,  -0.054373]
      <r_e> [Ang]:                  [ -0.557845,   0.142501,   0.156632]
      |<r_e - r_h>| [Ang]:            0.553872
      Hole size [Ang]:                0.122777
        Cartesian components [Ang]: [  0.070887,   0.070891,   0.070878]
      Electron size [Ang]:            1.827014
        Cartesian components [Ang]: [  1.020870,   0.681134,   1.353463]

  Singlet 3 :
  -------------------------
    NOs
      Occupation of frontier NOs:
         0.0000   1.0000   1.0000   2.0000
      Number of electrons: 80.000000
      Number of unpaired electrons: n_u =  2.00000, n_u,nl =  2.00000
      NO participation ratio (PR_NO):  2.000000
    
    NDOs
      Leading detachment eigenvalues:
        -1.0000  -0.0000
      Leading attachment eigenvalues:
         1.0000   0.0000
      Number of detached / attached electrons: p_D =  1.0000, p_A =  1.0000
      Number of involved orbitals: PR_D =  1.000000, PR_A =  1.000000
    
    Mulliken Population Analysis (State/Difference DM)
    Atom      Charge (e)              h+              e-           Del q
    --------------------------------------------------------------------
     1 O       -0.194170        0.992119       -0.428668        0.563451
     2 H        0.350777        0.003316       -0.024633       -0.021318
     3 H        0.365298        0.004504       -0.017504       -0.013000
     4 O       -0.739060       -0.000000       -0.047392       -0.047392
     5 H        0.306776       -0.000000       -0.000668       -0.000669
     6 H        0.370732        0.000000       -0.001401       -0.001401
     7 O       -0.665801        0.000000       -0.013974       -0.013974
     8 H        0.389220       -0.000000       -0.001114       -0.001115
     9 H        0.254397        0.000000       -0.000486       -0.000486
    10 O       -0.768097        0.000001       -0.102840       -0.102839
    11 H        0.265566        0.000000       -0.019801       -0.019801
    12 H        0.345711        0.000022       -0.022093       -0.022071
    13 O       -0.852319       -0.000004       -0.248703       -0.248707
    14 H        0.315344        0.000035       -0.009943       -0.009907
    15 H        0.242558       -0.000000       -0.018885       -0.018885
    16 O       -0.723581        0.000002       -0.011876       -0.011874
    17 H        0.309532        0.000000       -0.005796       -0.005796
    18 H        0.405669        0.000000       -0.000869       -0.000868
    19 O       -0.670490        0.000005       -0.011647       -0.011642
    20 H        0.345119        0.000000       -0.000498       -0.000498
    21 H        0.340963        0.000000       -0.000788       -0.000788
    22 O       -0.681270        0.000000       -0.007969       -0.007969
    23 H        0.327890        0.000000       -0.000507       -0.000506
    24 H        0.359233        0.000000       -0.001944       -0.001944
    --------------------------------------------------------------------
    Sum:       -0.000000        1.000000       -1.000000       -0.000000
    
    Multipole moment analysis of the density matrix
      Molecular charge:                      -0.000000
      Number of electrons:                   80.000000
        Center of electronic charge [Ang]: [ -0.003334,   0.002458,   0.004595]
      Total nuclear charge:                  80.000000
        Center of nuclear charge [Ang]:    [  0.018307,  -0.023054,  -0.000127]
      Dipole moment [D]:                     12.982377
        Cartesian components [D]:          [  8.315797,  -9.802913,  -1.814536]
      RMS size of the density [Ang]:         3.186816
        Cartesian components [Ang]:        [  1.745318,   2.264979,   1.406960]
    
    Exciton analysis of the difference density matrix
      <r_h> [Ang]:                  [ -0.155243,  -0.173983,  -0.054373]
      <r_e> [Ang]:                  [ -0.493224,   0.321196,   0.352736]
      |<r_e - r_h>| [Ang]:            0.724687
      Hole size [Ang]:                0.122777
        Cartesian components [Ang]: [  0.070887,   0.070891,   0.070878]
      Electron size [Ang]:            2.115727
        Cartesian components [Ang]: [  1.046743,   1.123577,   1.455406]

  Singlet 4 :
  -------------------------
    NOs
      Occupation of frontier NOs:
         0.0000   1.0000   1.0000   2.0000
      Number of electrons: 80.000000
      Number of unpaired electrons: n_u =  2.00000, n_u,nl =  2.00000
      NO participation ratio (PR_NO):  2.000000
    
    NDOs
      Leading detachment eigenvalues:
        -1.0000  -0.0000
      Leading attachment eigenvalues:
         1.0000   0.0000
      Number of detached / attached electrons: p_D =  1.0000, p_A =  1.0000
      Number of involved orbitals: PR_D =  1.000000, PR_A =  1.000000
    
    Mulliken Population Analysis (State/Difference DM)
    Atom      Charge (e)              h+              e-           Del q
    --------------------------------------------------------------------
     1 O        0.174647        0.992119       -0.059851        0.932267
     2 H        0.371992        0.003316       -0.003418       -0.000102
     3 H        0.374631        0.004504       -0.008171       -0.003668
     4 O       -0.742600       -0.000000       -0.050933       -0.050933
     5 H        0.303031       -0.000000       -0.004414       -0.004414
     6 H        0.371551        0.000000       -0.000583       -0.000582
     7 O       -0.655847        0.000000       -0.004020       -0.004020
     8 H        0.389838       -0.000000       -0.000497       -0.000497
     9 H        0.254401        0.000000       -0.000481       -0.000481
    10 O       -1.167082        0.000001       -0.501825       -0.501824
    11 H        0.265992        0.000000       -0.019375       -0.019375
    12 H        0.352656        0.000022       -0.015148       -0.015126
    13 O       -0.884476       -0.000004       -0.280861       -0.280865
    14 H        0.311044        0.000035       -0.014244       -0.014208
    15 H        0.242292       -0.000000       -0.019150       -0.019151
    16 O       -0.720008        0.000002       -0.008303       -0.008301
    17 H        0.313109        0.000000       -0.002219       -0.002219
    18 H        0.406135        0.000000       -0.000403       -0.000402
    19 O       -0.661220        0.000005       -0.002377       -0.002372
    20 H        0.345248        0.000000       -0.000369       -0.000369
    21 H        0.341024        0.000000       -0.000727       -0.000727
    22 O       -0.675489        0.000000       -0.002189       -0.002189
    23 H        0.328256        0.000000       -0.000141       -0.000141
    24 H        0.360874        0.000000       -0.000304       -0.000304
    --------------------------------------------------------------------
    Sum:        0.000000        1.000000       -1.000000        0.000000
    
    Multipole moment analysis of the density matrix
      Molecular charge:                      0.000000
      Number of electrons:                   80.000000
        Center of electronic charge [Ang]: [ -0.015298,   0.007101,  -0.002927]
      Total nuclear charge:                  80.000000
        Center of nuclear charge [Ang]:    [  0.018308,  -0.023054,  -0.000128]
      Dipole moment [D]:                     17.383043
        Cartesian components [D]:          [ 12.913292, -11.587043,   1.075874]
      RMS size of the density [Ang]:         3.193970
        Cartesian components [Ang]:        [  1.753241,   2.264779,   1.413637]
    
    Exciton analysis of the difference density matrix
      <r_h> [Ang]:                  [ -0.155243,  -0.173983,  -0.054373]
      <r_e> [Ang]:                  [ -1.450396,   0.692642,  -0.249031]
      |<r_e - r_h>| [Ang]:            1.570463
      Hole size [Ang]:                0.122777
        Cartesian components [Ang]: [  0.070887,   0.070891,   0.070878]
      Electron size [Ang]:            2.444132
        Cartesian components [Ang]: [  1.212724,   0.903840,   1.919936]

  Singlet 5 :
  -------------------------
    NOs
      Occupation of frontier NOs:
         0.0000   1.0000   1.0000   2.0000
      Number of electrons: 80.000000
      Number of unpaired electrons: n_u =  2.00000, n_u,nl =  2.00000
      NO participation ratio (PR_NO):  2.000000
    
    NDOs
      Leading detachment eigenvalues:
        -1.0000  -0.0000
      Leading attachment eigenvalues:
         1.0000   0.0000
      Number of detached / attached electrons: p_D =  1.0000, p_A =  1.0000
      Number of involved orbitals: PR_D =  1.000000, PR_A =  1.000000
    
    Mulliken Population Analysis (State/Difference DM)
    Atom      Charge (e)              h+              e-           Del q
    --------------------------------------------------------------------
     1 O        0.163854        0.992119       -0.070644        0.921475
     2 H        0.371115        0.003316       -0.004295       -0.000980
     3 H        0.379591        0.004504       -0.003211        0.001292
     4 O       -1.165562       -0.000000       -0.473895       -0.473895
     5 H        0.294415       -0.000000       -0.013029       -0.013029
     6 H        0.367389        0.000000       -0.004744       -0.004744
     7 O       -0.657927        0.000000       -0.006100       -0.006100
     8 H        0.389795       -0.000000       -0.000540       -0.000540
     9 H        0.254278        0.000000       -0.000605       -0.000605
    10 O       -0.751884        0.000001       -0.086627       -0.086626
    11 H        0.267976        0.000000       -0.017391       -0.017391
    12 H        0.363750        0.000022       -0.004054       -0.004032
    13 O       -0.788537       -0.000004       -0.184922       -0.184925
    14 H        0.314859        0.000035       -0.010428       -0.010393
    15 H        0.245928       -0.000000       -0.015515       -0.015515
    16 O       -0.803577        0.000002       -0.091873       -0.091871
    17 H        0.312230        0.000000       -0.003098       -0.003098
    18 H        0.402348        0.000000       -0.004189       -0.004189
    19 O       -0.660448        0.000005       -0.001605       -0.001600
    20 H        0.345140        0.000000       -0.000477       -0.000477
    21 H        0.341513        0.000000       -0.000239       -0.000239
    22 O       -0.675500        0.000000       -0.002200       -0.002199
    23 H        0.328245        0.000000       -0.000152       -0.000151
    24 H        0.361009        0.000000       -0.000169       -0.000169
    --------------------------------------------------------------------
    Sum:       -0.000000        1.000000       -1.000000       -0.000000
    
    Multipole moment analysis of the density matrix
      Molecular charge:                      -0.000000
      Number of electrons:                   80.000000
        Center of electronic charge [Ang]: [  0.000457,   0.025054,   0.000656]
      Total nuclear charge:                  80.000000
        Center of nuclear charge [Ang]:    [  0.018307,  -0.023054,  -0.000127]
      Dipole moment [D]:                     19.719713
        Cartesian components [D]:          [  6.859294, -18.485847,  -0.301098]
      RMS size of the density [Ang]:         3.197143
        Cartesian components [Ang]:        [  1.745288,   2.280642,   1.405122]
    
    Exciton analysis of the difference density matrix
      <r_h> [Ang]:                  [ -0.155243,  -0.173983,  -0.054373]
      <r_e> [Ang]:                  [ -0.189988,   2.128934,   0.037647]
      |<r_e - r_h>| [Ang]:            2.305016
      Hole size [Ang]:                0.122777
        Cartesian components [Ang]: [  0.070887,   0.070891,   0.070878]
      Electron size [Ang]:            2.387153
        Cartesian components [Ang]: [  1.137435,   1.605850,   1.351291]

  Singlet 6 :
  -------------------------
    NOs
      Occupation of frontier NOs:
         0.0000   1.0000   1.0000   2.0000
      Number of electrons: 80.000000
      Number of unpaired electrons: n_u =  2.00000, n_u,nl =  2.00000
      NO participation ratio (PR_NO):  2.000000
    
    NDOs
      Leading detachment eigenvalues:
        -1.0000  -0.0000
      Leading attachment eigenvalues:
         1.0000   0.0000
      Number of detached / attached electrons: p_D =  1.0000, p_A =  1.0000
      Number of involved orbitals: PR_D =  1.000000, PR_A =  1.000000
    
    Mulliken Population Analysis (State/Difference DM)
    Atom      Charge (e)              h+              e-           Del q
    --------------------------------------------------------------------
     1 O        0.164941        0.992119       -0.069557        0.922562
     2 H        0.370216        0.003316       -0.005194       -0.001878
     3 H        0.374771        0.004504       -0.008031       -0.003527
     4 O       -0.943962       -0.000000       -0.252294       -0.252294
     5 H        0.304414       -0.000000       -0.003030       -0.003030
     6 H        0.367028        0.000000       -0.005105       -0.005105
     7 O       -0.686230        0.000000       -0.034403       -0.034403
     8 H        0.386948       -0.000000       -0.003386       -0.003387
     9 H        0.252731        0.000000       -0.002151       -0.002151
    10 O       -0.858818        0.000001       -0.193561       -0.193560
    11 H        0.269585        0.000000       -0.015782       -0.015782
    12 H        0.361941        0.000022       -0.005862       -0.005840
    13 O       -0.773659       -0.000004       -0.170044       -0.170048
    14 H        0.309093        0.000035       -0.016194       -0.016159
    15 H        0.247293       -0.000000       -0.014150       -0.014150
    16 O       -0.834912        0.000002       -0.123207       -0.123206
    17 H        0.291680        0.000000       -0.023648       -0.023648
    18 H        0.386648        0.000000       -0.019889       -0.019889
    19 O       -0.671013        0.000005       -0.012170       -0.012165
    20 H        0.344684        0.000000       -0.000932       -0.000932
    21 H        0.340877        0.000000       -0.000875       -0.000875
    22 O       -0.688866        0.000000       -0.015566       -0.015566
    23 H        0.327818        0.000000       -0.000579       -0.000579
    24 H        0.356790        0.000000       -0.004388       -0.004388
    --------------------------------------------------------------------
    Sum:       -0.000000        1.000000       -1.000000       -0.000000
    
    Multipole moment analysis of the density matrix
      Molecular charge:                      -0.000000
      Number of electrons:                   80.000000
        Center of electronic charge [Ang]: [ -0.000914,   0.014958,  -0.000896]
      Total nuclear charge:                  80.000000
        Center of nuclear charge [Ang]:    [  0.018307,  -0.023054,  -0.000127]
      Dipole moment [D]:                     16.370050
        Cartesian components [D]:          [  7.386036, -14.606087,   0.295340]
      RMS size of the density [Ang]:         3.196175
        Cartesian components [Ang]:        [  1.749906,   2.274754,   1.406720]
    
    Exciton analysis of the difference density matrix
      <r_h> [Ang]:                  [ -0.155243,  -0.173983,  -0.054373]
      <r_e> [Ang]:                  [ -0.299653,   1.321190,  -0.086528]
      |<r_e - r_h>| [Ang]:            1.502474
      Hole size [Ang]:                0.122777
        Cartesian components [Ang]: [  0.070887,   0.070891,   0.070878]
      Electron size [Ang]:            2.810366
        Cartesian components [Ang]: [  1.590988,   1.785367,   1.476272]

  Singlet 7 :
  -------------------------
    NOs
      Occupation of frontier NOs:
         0.0000   1.0000   1.0000   2.0000
      Number of electrons: 80.000000
      Number of unpaired electrons: n_u =  2.00000, n_u,nl =  2.00000
      NO participation ratio (PR_NO):  2.000000
    
    NDOs
      Leading detachment eigenvalues:
        -1.0000  -0.0000
      Leading attachment eigenvalues:
         1.0000   0.0000
[...]
1234  O 7   d 2     -0.00012  -0.00019  -0.00016
1235  O 7   d 3      0.00091   0.00028   0.00105
1236  O 7   d 4      0.00022   0.00043  -0.00051
1237  O 7   d 5     -0.00022  -0.00005  -0.00081
1238  O 7   d 1      0.00408   0.00356   0.00621
1239  O 7   d 2      0.02100   0.00494  -0.01582
1240  O 7   d 3     -0.00719  -0.00158  -0.00581
1241  O 7   d 4     -0.00586  -0.00282   0.00806
1242  O 7   d 5      0.00570   0.00234  -0.00487
1243  O 7   d 1      0.00085  -0.01518   0.00266
1244  O 7   d 2      0.03878   0.02189  -0.03783
1245  O 7   d 3     -0.02730   0.01744  -0.01073
1246  O 7   d 4     -0.00782  -0.02206   0.02443
1247  O 7   d 5     -0.00009  -0.04858  -0.07990
1248  O 7   f 1      0.00001   0.00009  -0.00018
1249  O 7   f 2     -0.00017   0.00001   0.00021
1250  O 7   f 3     -0.00009  -0.00016  -0.00027
1251  O 7   f 4     -0.00020   0.00002   0.00040
1252  O 7   f 5      0.00005  -0.00007  -0.00009
1253  O 7   f 6     -0.00028   0.00002   0.00015
1254  O 7   f 7     -0.00007   0.00006   0.00007
1255  O 7   f 1     -0.00041  -0.00054   0.00164
1256  O 7   f 2      0.00182   0.00008  -0.00197
1257  O 7   f 3      0.00127   0.00105   0.00093
1258  O 7   f 4      0.00107  -0.00018  -0.00206
1259  O 7   f 5     -0.00013   0.00018  -0.00033
1260  O 7   f 6      0.00280   0.00022  -0.00200
1261  O 7   f 7      0.00045  -0.00010  -0.00036
1262  O 7   f 1     -0.00003   0.00888   0.01178
1263  O 7   f 2      0.00693   0.00564  -0.00924
1264  O 7   f 3      0.00701  -0.00333   0.00232
1265  O 7   f 4      0.00504  -0.00323  -0.01586
1266  O 7   f 5     -0.00623  -0.00355  -0.00902
1267  O 7   f 6      0.00770   0.00171  -0.00602
1268  O 7   f 7     -0.00098   0.00286   0.00412
1269  O 7   g 1     -0.00005  -0.00001   0.00004
1270  O 7   g 2     -0.00007  -0.00005   0.00009
1271  O 7   g 3     -0.00011  -0.00001  -0.00001
1272  O 7   g 4      0.00016  -0.00005  -0.00040
1273  O 7   g 5      0.00008   0.00010  -0.00006
1274  O 7   g 6     -0.00008   0.00002   0.00013
1275  O 7   g 7      0.00018   0.00006  -0.00018
1276  O 7   g 8      0.00003  -0.00005  -0.00005
1277  O 7   g 9     -0.00006   0.00001  -0.00008
1278  O 7   g 1      0.00019  -0.00004   0.00004
1279  O 7   g 2     -0.00077   0.00008   0.00031
1280  O 7   g 3      0.00109   0.00093   0.00197
1281  O 7   g 4     -0.00056   0.00095   0.00390
1282  O 7   g 5      0.00001  -0.00018   0.00074
1283  O 7   g 6      0.00054  -0.00031  -0.00096
1284  O 7   g 7     -0.00021  -0.00021   0.00012
1285  O 7   g 8      0.00185   0.00073  -0.00151
1286  O 7   g 9     -0.00002   0.00031   0.00190
1287  O 7   h 1      0.00003  -0.00008  -0.00014
1288  O 7   h 2     -0.00027  -0.00011   0.00016
1289  O 7   h 3      0.00003   0.00014   0.00030
1290  O 7   h 4      0.00005   0.00004   0.00005
1291  O 7   h 5      0.00001  -0.00001   0.00007
1292  O 7   h 6      0.00013   0.00004  -0.00004
1293  O 7   h 7     -0.00008   0.00006   0.00020
1294  O 7   h 8      0.00014   0.00009   0.00025
1295  O 7   h 9      0.00002   0.00013   0.00029
1296  O 7   h10      0.00001   0.00001   0.00002
1297  O 7   h11     -0.00000   0.00005   0.00010
1298  H 13  s       -0.00223   0.00025   0.00811
1299  H 13  s        0.00227  -0.00092   0.00646
1300  H 13  s       -0.06133  -0.06598   0.16751
1301  H 13  s        0.13002  -0.30922  -0.04909
1302  H 13  s       -0.71920   0.22054   1.42389
1303  H 13  px      -0.00030   0.00035   0.00114
1304  H 13  py       0.00085  -0.00036  -0.00144
1305  H 13  pz       0.00101  -0.00062  -0.00192
1306  H 13  px      -0.00109  -0.00180  -0.00219
1307  H 13  py      -0.00130   0.00119   0.00047
1308  H 13  pz      -0.00076   0.00186   0.00141
1309  H 13  px       0.00401   0.02131   0.01613
1310  H 13  py       0.01581  -0.01301   0.00209
1311  H 13  pz      -0.00494  -0.02600   0.01537
1312  H 13  px      -0.02953   0.02291   0.03142
1313  H 13  py       0.00744  -0.05407   0.05735
1314  H 13  pz       0.01440  -0.05580  -0.00960
1315  H 13  d 1     -0.00018  -0.00004  -0.00015
1316  H 13  d 2      0.00017  -0.00023  -0.00065
1317  H 13  d 3      0.00045  -0.00008  -0.00072
1318  H 13  d 4     -0.00046  -0.00016   0.00016
1319  H 13  d 5      0.00032   0.00039   0.00006
1320  H 13  d 1      0.00070   0.00052   0.00063
1321  H 13  d 2     -0.00117   0.00057   0.00558
1322  H 13  d 3     -0.00407  -0.00027   0.00775
1323  H 13  d 4      0.00325   0.00145  -0.00294
1324  H 13  d 5     -0.00201  -0.00194   0.00004
1325  H 13  d 1     -0.00326   0.00518   0.00136
1326  H 13  d 2     -0.00020  -0.00657   0.01704
1327  H 13  d 3     -0.00577  -0.00049   0.00575
1328  H 13  d 4      0.00083   0.00739   0.00760
1329  H 13  d 5     -0.00304   0.00551  -0.01197
1330  H 13  f 1     -0.00010  -0.00016  -0.00002
1331  H 13  f 2      0.00008   0.00007  -0.00018
1332  H 13  f 3      0.00000  -0.00008   0.00033
1333  H 13  f 4     -0.00013  -0.00007   0.00043
1334  H 13  f 5      0.00023   0.00000  -0.00049
1335  H 13  f 6     -0.00006  -0.00001   0.00013
1336  H 13  f 7      0.00001   0.00013   0.00017
1337  H 13  f 1     -0.00056   0.00038  -0.00120
1338  H 13  f 2      0.00092   0.00028  -0.00073
1339  H 13  f 3     -0.00274   0.00077   0.00571
1340  H 13  f 4     -0.00154   0.00098   0.00116
1341  H 13  f 5      0.00176   0.00057  -0.00089
1342  H 13  f 6     -0.00122  -0.00041  -0.00353
1343  H 13  f 7      0.00048  -0.00103  -0.00083
1344  H 13  g 1      0.00005  -0.00001   0.00009
1345  H 13  g 2     -0.00013   0.00001  -0.00014
1346  H 13  g 3      0.00018  -0.00003  -0.00026
1347  H 13  g 4     -0.00025   0.00007   0.00044
1348  H 13  g 5     -0.00002   0.00005  -0.00002
1349  H 13  g 6      0.00017  -0.00002  -0.00022
1350  H 13  g 7     -0.00007  -0.00006  -0.00028
1351  H 13  g 8      0.00004  -0.00001   0.00011
1352  H 13  g 9      0.00003   0.00005   0.00012
1353  H 14  s        0.00141   0.00017  -0.00359
1354  H 14  s       -0.01459  -0.00385   0.00877
1355  H 14  s        0.18497   0.00311  -0.18805
1356  H 14  s        0.22597  -0.08142  -0.43147
1357  H 14  s        0.66844   0.20796  -1.19728
1358  H 14  px      -0.00002   0.00001  -0.00005
1359  H 14  py      -0.00097  -0.00026   0.00131
1360  H 14  pz       0.00097   0.00044  -0.00099
1361  H 14  px       0.00067  -0.00021  -0.00172
1362  H 14  py       0.00046  -0.00025   0.00013
1363  H 14  pz      -0.00143  -0.00105  -0.00128
1364  H 14  px      -0.00223   0.00725   0.01028
1365  H 14  py       0.04207   0.00752  -0.00486
1366  H 14  pz      -0.03472   0.00963   0.04727
1367  H 14  px      -0.00942  -0.00375   0.01605
1368  H 14  py       0.11456   0.01290  -0.06761
1369  H 14  pz      -0.06451   0.01518   0.11271
1370  H 14  d 1      0.00003  -0.00016  -0.00030
1371  H 14  d 2      0.00083   0.00026  -0.00086
1372  H 14  d 3     -0.00017   0.00012   0.00066
1373  H 14  d 4      0.00009   0.00020   0.00030
1374  H 14  d 5      0.00023   0.00015   0.00005
1375  H 14  d 1     -0.00018   0.00095   0.00104
1376  H 14  d 2     -0.01002  -0.00202   0.00753
1377  H 14  d 3      0.00347  -0.00101  -0.00761
1378  H 14  d 4      0.00003  -0.00119  -0.00191
1379  H 14  d 5     -0.00389  -0.00178  -0.00070
1380  H 14  d 1      0.00145   0.00229  -0.00103
1381  H 14  d 2     -0.02496  -0.00470   0.02192
1382  H 14  d 3     -0.00416  -0.01073  -0.02454
1383  H 14  d 4      0.00183  -0.00194  -0.00944
1384  H 14  d 5     -0.01871  -0.00447   0.00078
1385  H 14  f 1     -0.00016  -0.00017  -0.00014
1386  H 14  f 2      0.00012  -0.00003  -0.00019
1387  H 14  f 3      0.00055   0.00002  -0.00043
1388  H 14  f 4     -0.00009  -0.00006   0.00019
1389  H 14  f 5     -0.00005  -0.00000  -0.00004
1390  H 14  f 6      0.00044   0.00012  -0.00012
1391  H 14  f 7      0.00011   0.00004   0.00002
1392  H 14  f 1     -0.00271  -0.00096  -0.00045
1393  H 14  f 2     -0.00038  -0.00090  -0.00088
1394  H 14  f 3      0.00356  -0.00001  -0.00845
1395  H 14  f 4      0.00319   0.00274   0.00263
1396  H 14  f 5     -0.00029   0.00080   0.00288
1397  H 14  f 6      0.00537   0.00186  -0.00217
1398  H 14  f 7     -0.00066  -0.00088  -0.00042
1399  H 14  g 1      0.00001  -0.00001  -0.00005
1400  H 14  g 2      0.00039   0.00020  -0.00002
1401  H 14  g 3     -0.00001   0.00006   0.00019
1402  H 14  g 4     -0.00002   0.00014   0.00070
1403  H 14  g 5     -0.00030  -0.00012   0.00015
1404  H 14  g 6      0.00004  -0.00006  -0.00023
1405  H 14  g 7     -0.00040  -0.00008   0.00044
1406  H 14  g 8      0.00002   0.00007   0.00009
1407  H 14  g 9      0.00018   0.00014   0.00013
1408  O 8   s        0.00114   0.00098  -0.00006
1409  O 8   s       -0.03709  -0.02737   0.00085
1410  O 8   s       -0.00123  -0.00056  -0.00055
1411  O 8   s       -0.05389  -0.03914   0.00227
1412  O 8   s        0.13868   0.08720   0.04399
1413  O 8   s        0.30623   0.12509   0.02157
1414  O 8   px       0.01012  -0.01172   0.00006
1415  O 8   py       0.02541   0.01832   0.00335
1416  O 8   pz      -0.00845   0.01236   0.00389
1417  O 8   px       0.01412  -0.01674   0.00148
1418  O 8   py       0.04275   0.03025   0.00556
1419  O 8   pz      -0.00943   0.01723   0.00479
1420  O 8   px       0.03381  -0.05417  -0.01202
1421  O 8   py       0.04215   0.03321   0.00321
1422  O 8   pz      -0.05179   0.05450   0.02282
1423  O 8   px       0.10819  -0.04828  -0.03691
1424  O 8   py      -0.02260  -0.04610  -0.00884
1425  O 8   pz      -0.12995   0.07660   0.07604
1426  O 8   px       0.01149  -0.20264  -0.07747
1427  O 8   py      -0.08158  -0.01550   0.00511
1428  O 8   pz      -0.28847   0.05176   0.10529
1429  O 8   d 1     -0.00033  -0.00020  -0.00010
1430  O 8   d 2     -0.00016   0.00004   0.00002
1431  O 8   d 3     -0.00004  -0.00010  -0.00004
1432  O 8   d 4      0.00021   0.00007   0.00009
1433  O 8   d 5      0.00012  -0.00005   0.00003
1434  O 8   d 1      0.00171   0.00072   0.00006
1435  O 8   d 2      0.00078   0.00050   0.00063
1436  O 8   d 3      0.00044   0.00169   0.00066
1437  O 8   d 4     -0.00197  -0.00133  -0.00023
1438  O 8   d 5      0.00068   0.00089   0.00006
1439  O 8   d 1     -0.01466   0.00767   0.00391
1440  O 8   d 2      0.01174  -0.01361  -0.00801
1441  O 8   d 3      0.01405  -0.00941  -0.00556
1442  O 8   d 4     -0.00011  -0.00454  -0.00313
1443  O 8   d 5     -0.00597  -0.00072   0.00221
1444  O 8   d 1     -0.02697   0.02966   0.01632
1445  O 8   d 2      0.05380  -0.02360  -0.02169
1446  O 8   d 3      0.04836  -0.02279  -0.02814
1447  O 8   d 4      0.00217   0.00302  -0.00266
1448  O 8   d 5     -0.03387  -0.01126   0.00670
1449  O 8   f 1     -0.00018   0.00000   0.00005
1450  O 8   f 2      0.00001  -0.00018  -0.00013
1451  O 8   f 3      0.00016  -0.00007  -0.00006
1452  O 8   f 4     -0.00015  -0.00002  -0.00002
1453  O 8   f 5      0.00013  -0.00001  -0.00003
1454  O 8   f 6      0.00011   0.00023   0.00007
1455  O 8   f 7      0.00003  -0.00007  -0.00005
1456  O 8   f 1      0.00121  -0.00071  -0.00056
1457  O 8   f 2      0.00016   0.00164   0.00108
1458  O 8   f 3     -0.00208   0.00062   0.00042
1459  O 8   f 4      0.00064  -0.00040  -0.00008
1460  O 8   f 5      0.00017  -0.00073  -0.00014
1461  O 8   f 6     -0.00038  -0.00099  -0.00032
1462  O 8   f 7     -0.00052   0.00067   0.00035
1463  O 8   f 1      0.01143  -0.00136  -0.00289
1464  O 8   f 2     -0.00925  -0.00062   0.00136
1465  O 8   f 3     -0.00881   0.00955   0.00609
1466  O 8   f 4      0.01057   0.00437   0.00171
1467  O 8   f 5     -0.00461   0.00250   0.00268
1468  O 8   f 6     -0.00266  -0.01022  -0.00592
1469  O 8   f 7      0.00037   0.00892   0.00246
1470  O 8   g 1      0.00010   0.00010   0.00005
1471  O 8   g 2      0.00005  -0.00020  -0.00010
1472  O 8   g 3     -0.00031   0.00019   0.00010
1473  O 8   g 4      0.00016  -0.00003   0.00002
1474  O 8   g 5      0.00008  -0.00007  -0.00003
1475  O 8   g 6      0.00008   0.00010   0.00003
1476  O 8   g 7     -0.00007   0.00007  -0.00001
1477  O 8   g 8      0.00002  -0.00008  -0.00004
1478  O 8   g 9      0.00002   0.00006   0.00003
1479  O 8   g 1     -0.00172  -0.00114  -0.00033
1480  O 8   g 2      0.00189   0.00128   0.00066
1481  O 8   g 3      0.00123   0.00007  -0.00036
1482  O 8   g 4     -0.00174  -0.00108  -0.00064
1483  O 8   g 5     -0.00003   0.00011  -0.00015
1484  O 8   g 6     -0.00278   0.00033   0.00015
1485  O 8   g 7     -0.00009   0.00023   0.00057
1486  O 8   g 8     -0.00013   0.00130   0.00068
1487  O 8   g 9      0.00098  -0.00115  -0.00064
1488  O 8   h 1      0.00006   0.00016   0.00006
1489  O 8   h 2     -0.00025  -0.00017  -0.00005
1490  O 8   h 3      0.00013   0.00002  -0.00006
1491  O 8   h 4      0.00027  -0.00021  -0.00000
1492  O 8   h 5     -0.00012   0.00022   0.00010
1493  O 8   h 6     -0.00026   0.00001   0.00002
1494  O 8   h 7     -0.00029  -0.00016  -0.00004
1495  O 8   h 8      0.00011  -0.00020  -0.00013
1496  O 8   h 9      0.00010   0.00028   0.00007
1497  O 8   h10      0.00018  -0.00012  -0.00000
1498  O 8   h11     -0.00018  -0.00001   0.00001
1499  H 15  s        0.00319   0.00419   0.00077
1500  H 15  s        0.02452   0.00197  -0.00116
1501  H 15  s       -0.12728   0.14012   0.07504
1502  H 15  s       -0.61766  -0.30852   0.08434
1503  H 15  s        0.19761   0.93965   0.19653
1504  H 15  px       0.00042   0.00063  -0.00008
1505  H 15  py      -0.00059  -0.00114  -0.00020
1506  H 15  pz      -0.00064  -0.00201  -0.00031
1507  H 15  px      -0.00197  -0.00088   0.00096
1508  H 15  py       0.00378   0.00206   0.00015
1509  H 15  pz       0.00369   0.00409   0.00053
1510  H 15  px       0.03012  -0.00790  -0.01698
1511  H 15  py      -0.03978  -0.00067   0.00732
1512  H 15  pz      -0.06844  -0.00867   0.01201
1513  H 15  px       0.06977   0.03869  -0.00844
1514  H 15  py      -0.09834  -0.01659   0.02638
1515  H 15  pz      -0.17972  -0.04615   0.01973
1516  H 15  d 1     -0.00007   0.00053   0.00020
1517  H 15  d 2      0.00036  -0.00025  -0.00006
1518  H 15  d 3      0.00037  -0.00024   0.00001
1519  H 15  d 4     -0.00058   0.00008   0.00012
1520  H 15  d 5     -0.00048  -0.00019  -0.00027
1521  H 15  d 1      0.00126  -0.00391  -0.00187
1522  H 15  d 2     -0.00439   0.00362   0.00164
1523  H 15  d 3     -0.00477   0.00195   0.00080
1524  H 15  d 4      0.00519  -0.00299  -0.00229
1525  H 15  d 5      0.00225   0.00056   0.00132
1526  H 15  d 1      0.01348   0.00035  -0.00550
1527  H 15  d 2     -0.03410  -0.00787   0.00128
1528  H 15  d 3     -0.02842  -0.01256  -0.00230
1529  H 15  d 4      0.01866   0.00003  -0.00669
1530  H 15  d 5     -0.00201  -0.00238  -0.00210
1531  H 15  f 1      0.00025   0.00007   0.00004
1532  H 15  f 2     -0.00000  -0.00028  -0.00020
1533  H 15  f 3     -0.00009   0.00041   0.00017
1534  H 15  f 4      0.00005  -0.00004   0.00000
1535  H 15  f 5      0.00011  -0.00043  -0.00026
1536  H 15  f 6     -0.00013  -0.00023  -0.00004
1537  H 15  f 7     -0.00023  -0.00006  -0.00006
1538  H 15  f 1     -0.00127   0.00015   0.00052
1539  H 15  f 2      0.00426  -0.00167  -0.00158
1540  H 15  f 3     -0.00716  -0.00152  -0.00059
1541  H 15  f 4     -0.00216  -0.00161  -0.00098
1542  H 15  f 5      0.00442   0.00037  -0.00071
1543  H 15  f 6      0.00271   0.00072   0.00077
1544  H 15  f 7      0.00039   0.00154   0.00107
1545  H 15  g 1      0.00004   0.00002   0.00001
1546  H 15  g 2      0.00002   0.00004   0.00009
1547  H 15  g 3      0.00040  -0.00015  -0.00015
1548  H 15  g 4     -0.00037  -0.00017  -0.00011
1549  H 15  g 5      0.00010  -0.00017  -0.00011
1550  H 15  g 6      0.00024  -0.00001  -0.00005
1551  H 15  g 7      0.00021  -0.00000   0.00008
1552  H 15  g 8     -0.00015   0.00011   0.00007
1553  H 15  g 9     -0.00002  -0.00004  -0.00005
1554  H 16  s        0.00281   0.00192  -0.00085
1555  H 16  s        0.00287   0.01876   0.00521
1556  H 16  s        0.17244  -0.06426  -0.06584
1557  H 16  s       -0.37590  -0.37991  -0.15793
1558  H 16  s        0.82390  -0.02821  -0.14774
1559  H 16  px      -0.00241  -0.00022  -0.00001
1560  H 16  py      -0.00110   0.00002   0.00015
1561  H 16  pz       0.00119   0.00010  -0.00006
1562  H 16  px       0.00795   0.00304   0.00107
1563  H 16  py       0.00296   0.00129   0.00032
1564  H 16  pz      -0.00126  -0.00153  -0.00073
1565  H 16  px      -0.03312  -0.04249  -0.01971
1566  H 16  py      -0.00199  -0.00265  -0.00362
1567  H 16  pz      -0.02348   0.03506   0.02058
1568  H 16  px      -0.03832  -0.08801  -0.04116
1569  H 16  py      -0.04154  -0.03430  -0.02635
1570  H 16  pz       0.07254   0.11694   0.05809
1571  H 16  d 1      0.00044   0.00024   0.00019
1572  H 16  d 2      0.00061   0.00014   0.00003
1573  H 16  d 3     -0.00050  -0.00006  -0.00003
1574  H 16  d 4      0.00020  -0.00090  -0.00030
1575  H 16  d 5     -0.00013   0.00037   0.00018
1576  H 16  d 1     -0.00058  -0.00169  -0.00169
1577  H 16  d 2     -0.00631  -0.00033   0.00055
1578  H 16  d 3      0.00529  -0.00059  -0.00030
1579  H 16  d 4     -0.00440   0.00783   0.00345
1580  H 16  d 5     -0.00056  -0.00489  -0.00194
1581  H 16  d 1     -0.01864  -0.01181  -0.00335
1582  H 16  d 2      0.00846   0.01390   0.00983
1583  H 16  d 3      0.01131  -0.01183  -0.00802
1584  H 16  d 4      0.01772   0.02933   0.01382
1585  H 16  d 5     -0.01690  -0.01923  -0.00481
1586  H 16  f 1      0.00015  -0.00010  -0.00012
1587  H 16  f 2     -0.00078  -0.00001   0.00009
1588  H 16  f 3      0.00049   0.00018   0.00011
1589  H 16  f 4     -0.00002  -0.00006  -0.00011
1590  H 16  f 5      0.00077  -0.00017  -0.00008
1591  H 16  f 6     -0.00014   0.00019   0.00015
1592  H 16  f 7     -0.00033  -0.00026  -0.00002
1593  H 16  f 1     -0.00452  -0.00339  -0.00108
1594  H 16  f 2      0.00315   0.00429   0.00215
1595  H 16  f 3      0.00224  -0.00251  -0.00188
1596  H 16  f 4     -0.00234  -0.00168  -0.00045
1597  H 16  f 5      0.00103  -0.00392  -0.00202
1598  H 16  f 6      0.00322   0.00576   0.00167
1599  H 16  f 7      0.00065  -0.00169  -0.00059
1600  H 16  g 1     -0.00029  -0.00025  -0.00008
1601  H 16  g 2      0.00028   0.00041   0.00018
1602  H 16  g 3      0.00024  -0.00026  -0.00017
1603  H 16  g 4     -0.00026   0.00005   0.00005
1604  H 16  g 5     -0.00008   0.00022   0.00011
1605  H 16  g 6     -0.00033   0.00000   0.00002
1606  H 16  g 7     -0.00007  -0.00033  -0.00012
1607  H 16  g 8      0.00013   0.00027   0.00006
1608  H 16  g 9      0.00012  -0.00006  -0.00001

 -----------------------------------------------------------------
                    Cartesian Multipole Moments
 -----------------------------------------------------------------
    Charge (ESU x 10^10)
                -0.0000
    Dipole Moment (Debye)
         X       6.6924      Y      -7.4245      Z       0.1409
       Tot       9.9965
    Quadrupole Moments (Debye-Ang)
        XX     -53.6309     XY      -8.1989     YY     -47.3333
        XZ     -13.8251     YZ       1.1419     ZZ     -55.7496
    Octopole Moments (Debye-Ang^2)
       XXX      43.9915    XXY      42.7772    XYY      38.8418
       YYY    -175.1484    XXZ       2.6298    XYZ       0.0914
       YYZ     -27.4031    XZZ       3.5983    YZZ     -18.0432
       ZZZ      17.4385
    Hexadecapole Moments (Debye-Ang^3)
      XXXX    -976.9885   XXXY    -259.1961   XXYY    -429.9965
      XYYY    -182.7469   YYYY   -1453.3970   XXXZ    -308.5299
      XXYZ     -66.6527   XYYZ     -56.7382   YYYZ      80.8088
      XXZZ    -312.7591   XYZZ     -85.3518   YYZZ    -335.4555
      XZZZ    -284.0577   YZZZ     -84.3477   ZZZZ    -623.6309
 -----------------------------------------------------------------
 Total job time:  79674.80s(wall), 311474.32s(cpu) 
 Thu Dec 26 15:44:03 2024

        *************************************************************
        *                                                           *
        *  Thank you very much for using Q-Chem.  Have a nice day.  *
        *                                                           *
        *************************************************************


