                  Welcome to Q-Chem
     A Quantum Leap Into The Future Of Chemistry


 Q-Chem 6.2 (devel), Q-Chem, Inc., Pleasanton, CA (2024)

 E. Epifanovsky,  A. T. B. Gilbert,  Xintian Feng,  Joonho Lee,  Yuezhi Mao,  
 N. Mardirossian,  P. Pokhilko,  A. White,  M. Wormit,  M. P. Coons,  
 A. L. Dempwolff,  Zhengting Gan,  D. Hait,  P. R. Horn,  L. D. Jacobson,  
 I. Kaliman,  J. Kussmann,  A. W. Lange,  Ka Un Lao,  D. S. Levine,  Jie Liu,  
 S. C. McKenzie,  A. F. Morrison,  K. D. Nanda,  F. Plasser,  D. R. Rehn,  
 M. L. Vidal,  Zhi-Qiang You,  Ying Zhu,  Huseyin Aksu,  B. Alam,  
 B. Albrecht,  A. Aldossary,  E. Alguire,  J. H. Andersen,  
 J. E. Arias-Martinez,  V. Athavale,  D. Barton,  K. Begam,  A. Behn,  
 N. Bellonzi,  Y. A. Bernard,  E. J. Berquist,  H. Burton,  A. Carreras,  
 K. Carter-Fenk,  Mathew Chow,  Romit Chakraborty,  Chandrima Chakravarty,  
 Junhan Chen,  A. D. Chien,  K. D. Closser,  V. Cofer-Shabica,  L. Cunha,  
 S. Dasgupta,  Jia Deng,  Joseph Dickinson,  M. de Wergifosse,  
 M. Diedenhofen,  Hainam Do,  Wenjie Dou,  S. Ehlert,  Po-Tung Fang,  
 S. Fatehi,  Qingguo Feng,  Jonathan Fetherolf,  T. Friedhoff,  
 Thomas Froitzheim,  Sarai Folkestad,  B. Ganoe,  J. Gayvert,  Qinghui Ge,  
 G. Gidofalvi,  M. Gimferrer,  M. Goldey,  Montgomery Gray,  J. Gomes,  
 C. Gonzalez-Espinoza,  S. Gulania,  A. Gunina,  J. A. Gyamfi,  
 M. W. D. Hanson-Heine,  P. H. P. Harbach,  A. W. Hauser,  M. F. Herbst,  
 M. Hernandez Vera,  M. Hodecker,  Z. C. Holden,  S. Houck,  Xunkun Huang,  
 Kerwin Hui,  B. C. Huynh,  K. Ikeda,  M. Ivanov,  Nayanthara K. Jayadev,  
 Hyunjun Ji,  Zuxin Jin,  Hanjie Jiang,  Subrata Jana,  B. Kaduk,  
 S. Kaehler,  R. Kang,  K. Khistyaev,  Jaehoon Kim,  Yongbin Kim,  
 P. Klunzinger,  Z. Koczor-Benda,  Joong Hoon Koh,  D. Kosenkov,  
 Saikiran Kotaru,  L. Koulias,  T. Kowalczyk,  C. M. Krauter,  K. Kue,  
 A. Kunitsa,  T. Kus,  A. Landau,  K. V. Lawler,  D. Lefrancois,  S. Lehtola,  
 Rain Li,  Shaozhi Li,  Tao E. Li,  Yi-Pei Li,  Jiashu Liang,  M. Liebenthal,  
 Hung-Hsuan Lin,  You-Sheng Lin,  Fenglai Liu,  Kuan-Yu Liu,  Xiao Liu,  
 M. Loipersberger,  A. Luenser,  C. Malbon,  Aniket Mandal,  Manisha,  
 A. Manjanath,  P. Manohar,  E. Mansoor,  S. F. Manzer,  Shan-Ping Mao,  
 A. V. Marenich,  T. Markovich,  S. Mason,  F. Matz,  S. A. Maurer,  
 Samuel May,  Alexandra McIsaac,  P. F. McLaughlin,  M. F. S. J. Menger,  
 J.-M. Mewes,  S. A. Mewes,  P. Morgante,  Mohammad Mostafanejad,  
 Madhubani Mukherjee,  J. W. Mullinax,  Quyen Nguyen,  Avik Kumar Ojha,  
 K. J. Oosterbaan,  Eno Paenurk,  Xiaoliang Pan,  G. Paran,  V. Parravicini,  
 Alexander C. Paul,  Suranjan K. Paul,  F. Pavosevic,  Zheng Pei,  S. Prager,  
 E. I. Proynov,  E. Ramos,  B. Rana,  A. E. Rask,  A. Rettig,  R. M. Richard,  
 F. Rob,  E. Rossomme,  T. Scheele,  M. Scheurer,  M. Schneider,  
 P. E. Schneider,  Tim K. Schramm,  N. Sergueev,  S. M. Sharada,  
 Hengyuan Shen,  W. Skomorowski,  D. W. Small,  C. J. Stein,  
 Alistair J. Sterling,  Yingli Su,  Yu-Chuan Su,  E. J. Sundstrom,  
 J. Talbot,  Zhen Tao,  J. Thirman,  Hung-Yi Tsai,  T. Tsuchimochi,  
 N. M. Tubman,  C. Utku,  S. P. Veccham,  O. Vydrov,  Rahel Weiss,  
 J. Wenzel,  Jonathan Wong,  J. Witte,  H. Wu,  Yanze Wu,  A. Yamada,  
 Chou-Hsun Yang,  Kun Yao,  S. Yeganeh,  S. R. Yost,  Qi Yu,  A. Zech,  
 F. Zeller,  Chongxiao Zhao,  Igor Ying Zhang,  Xing Zhang,  Yu Zhang,  
 D. Zuev,  A. Aspuru-Guzik,  A. T. Bell,  N. A. Besley,  K. B. Bravaya,  
 B. R. Brooks,  D. Casanova,  Jeng-Da Chai,  Hsing-Ta Chen,  S. Coriani,  
 C. J. Cramer,  A. E. DePrince, III,  R. A. DiStasio Jr.,  A. Dreuw,  
 B. D. Dunietz,  T. R. Furlani,  W. A. Goddard III,  S. Grimme,  
 S. Hammes-Schiffer,  T. Head-Gordon,  W. J. Hehre,  Chao-Ping Hsu,  
 T.-C. Jagau,  Yousung Jung,  A. Klamt,  Jing Kong,  D. S. Lambrecht,  
 Xiangyuan Li,  WanZhen Liang,  N. J. Mayhall,  C. W. McCurdy,  J. B. Neaton,  
 T. Neudecker,  C. Ochsenfeld,  J. A. Parkhill,  R. Peverati,  
 V. A. Rassolov,  Haisheng Ren,  Yihan Shao,  L. V. Slipchenko,  
 R. P. Steele,  J. E. Subotnik,  A. J. W. Thom,  A. Tkatchenko,  
 D. G. Truhlar,  T. Van Voorhis,  Fan Wang,  T. A. Wesolowski,  K. B. Whaley,  
 H. L. Woodcock III,  P. M. Zimmerman,  S. Faraji,  P. M. W. Gill,  
 M. Head-Gordon,  J. M. Herbert,  A. I. Krylov

 Contributors to earlier versions of Q-Chem not listed above: 
 R. D. Adamson,  B. Austin,  R. Baer,  J. Baker,  G. J. O. Beran,  
 K. Brandhorst,  S. T. Brown,  E. F. C. Byrd,  Arup K. Chakraborty,  
 G. K. L. Chan,  Chun-Min Chang,  Yunqing Chen,  C.-L. Cheng,  
 Siu Hung Chien,  D. M. Chipman,  D. L. Crittenden,  H. Dachsel,  
 R. J. Doerksen,  A. D. Dutoi,  R. G. Edgar,  J. Fosso-Tande,  
 L. Fusti-Molnar,  D. Ghosh,  A. Ghysels,  A. Golubeva-Zadorozhnaya,  
 J. Gonthier,  M. S. Gordon,  S. R. Gwaltney,  G. Hawkins,  J. E. Herr,  
 A. Heyden,  S. Hirata,  E. G. Hohenstein,  G. Kedziora,  F. J. Keil,  
 C. Kelley,  Jihan Kim,  R. A. King,  R. Z. Khaliullin,  P. P. Korambath,  
 W. Kurlancheek,  A. Laurent,  A. M. Lee,  M. S. Lee,  S. V. Levchenko,  
 Ching Yeh Lin,  D. Liotard,  E. Livshits,  R. C. Lochan,  I. Lotan,  
 L. A. Martinez-Martinez,  P. E. Maslen,  N. Nair,  D. P. O'Neill,  
 D. Neuhauser,  E. Neuscamman,  C. M. Oana,  R. Olivares-Amaya,  R. Olson,  
 T. M. Perrine,  B. Peters,  P. A. Pieniazek,  A. Prociuk,  Y. M. Rhee,  
 J. Ritchie,  M. A. Rohrdanz,  E. Rosta,  N. J. Russ,  H. F. Schaefer III,  
 M. W. Schmidt,  N. E. Schultz,  S. Sharma,  N. Shenvi,  C. D. Sherrill,  
 A. C. Simmonett,  A. Sodt,  T. Stein,  D. Stuck,  K. S. Thanthiriwatte,  
 V. Vanovschi,  L. Vogt,  Tao Wang,  A. Warshel,  M. A. Watson,  
 C. F. Williams,  Q. Wu,  X. Xu,  Jun Yang,  W. Zhang,  Yan Zhao

   Please cite Q-Chem as follows:
  "Software for the frontiers of quantum chemistry:
   An overview of developments in the Q-Chem 5 package"
   J. Chem. Phys. 155, 084801 (2021)
   https://doi.org/10.1063/5.0055522 (open access)

 Q-Chem 6.2.2 for Intel X86 EM64T Linux

 Parts of Q-Chem use Armadillo 9.900.5 (Nocturnal Misbehaviour).
 http://arma.sourceforge.net/

 Q-Chem begins on Tue Dec 17 21:42:12 2024  

 Host: compute-0-14.local
0

     Scratch files written to /scratch/keith/A2D0_1//
 Processing $rem in /home/keith/software/qchem/qchem_622/config/preferences:
 Processing $rem in /home/keith/.qchemrc:

 Checking the input file for inconsistencies... 	...done.

--------------------------------------------------------------
User input:
--------------------------------------------------------------
$molecule
0 1
O -0.15538 -0.17396 -0.05431
H 0.20762 -0.97296 -0.47291
H 0.57462 0.42634 -0.15331
O -0.04638 3.61404 -0.47121
H -0.28738 2.95564 -1.12131
H 0.90962 3.40114 -0.25631
O -2.21638 -3.65066 -0.90051
H -1.43438 -3.17686 -0.89801
H -2.03438 -4.55266 -1.19411
O -2.48938 0.50074 -1.81001
H -2.96238 1.24764 -1.41171
H -1.82738 0.30154 -1.07391
O -0.35738 0.80494 2.40469
H -0.37038 0.02584 1.81069
H -1.12638 0.65924 2.97569
O 2.10562 1.89594 -0.26531
H 2.92662 1.92554 -0.78541
H 2.32162 1.71014 0.68269
O 0.31262 -2.87766 -0.79171
H 0.67862 -3.41176 -1.52291
H 0.42962 -3.56636 -0.12931
O 2.66062 0.12094 1.88969
H 2.91462 -0.35826 1.09669
H 2.03262 -0.33306 2.43269
$end

$rem
method                    b3lyp 
basis                     cc-pv5z 
mem_total                 48000
mem_static                8000
thresh                    12
scf_convergence           8
xc_grid                   000075000302
max_scf_cycles            2000
symmetry                  false
sym_ignore                true
print_orbitals true
$end
gui                       2
molden_format true
--------------------------------------------------------------
 ----------------------------------------------------------------
             Standard Nuclear Orientation (Angstroms)
    I     Atom           X                Y                Z
 ----------------------------------------------------------------
    1      O      -0.1553800000    -0.1739600000    -0.0543100000
    2      H       0.2076200000    -0.9729600000    -0.4729100000
    3      H       0.5746200000     0.4263400000    -0.1533100000
    4      O      -0.0463800000     3.6140400000    -0.4712100000
    5      H      -0.2873800000     2.9556400000    -1.1213100000
    6      H       0.9096200000     3.4011400000    -0.2563100000
    7      O      -2.2163800000    -3.6506600000    -0.9005100000
    8      H      -1.4343800000    -3.1768600000    -0.8980100000
    9      H      -2.0343800000    -4.5526600000    -1.1941100000
   10      O      -2.4893800000     0.5007400000    -1.8100100000
   11      H      -2.9623800000     1.2476400000    -1.4117100000
   12      H      -1.8273800000     0.3015400000    -1.0739100000
   13      O      -0.3573800000     0.8049400000     2.4046900000
   14      H      -0.3703800000     0.0258400000     1.8106900000
   15      H      -1.1263800000     0.6592400000     2.9756900000
   16      O       2.1056200000     1.8959400000    -0.2653100000
   17      H       2.9266200000     1.9255400000    -0.7854100000
   18      H       2.3216200000     1.7101400000     0.6826900000
   19      O       0.3126200000    -2.8776600000    -0.7917100000
   20      H       0.6786200000    -3.4117600000    -1.5229100000
   21      H       0.4296200000    -3.5663600000    -0.1293100000
   22      O       2.6606200000     0.1209400000     1.8896900000
   23      H       2.9146200000    -0.3582600000     1.0966900000
   24      H       2.0326200000    -0.3330600000     2.4326900000
 ----------------------------------------------------------------
 Nuclear Repulsion Energy =         440.20728278 hartrees
 There are       40 alpha and       40 beta electrons
 Requested basis set is cc-pV5Z
 There are 408 shells and 1608 basis functions

 Total QAlloc Memory Limit  48000 MB
 Mega-Array Size      7821 MB
 MEM_STATIC part      8000 MB

 A cutoff of  1.0D-12 yielded  47436 shell pairs
 There are    610018 function pairs (   1002836 Cartesian)
 Smallest overlap matrix eigenvalue = 1.76E-05

 Scale SEOQF with 1.000000e-01/1.000000e-01/1.000000e-01

 Standard Electronic Orientation quadrupole field applied
 Nucleus-field energy     =     0.0000000213 hartrees
 Guess from superposition of atomic densities
 Warning:  Energy on first SCF cycle will be non-variational
 SAD guess density has 80.000000 electrons

 -----------------------------------------------------------------------
  General SCF calculation program by
  Eric Jon Sundstrom, Paul Horn, Yuezhi Mao, Dmitri Zuev, Alec White,
  David Stuck, Shaama M.S., Shane Yost, Joonho Lee, David Small,
  Daniel Levine, Susi Lehtola, Hugh Burton, Evgeny Epifanovsky,
  Bang C. Huynh
 -----------------------------------------------------------------------
 Exchange:     0.2000 Hartree-Fock + 0.0800 Slater + 0.7200 B88
 Correlation:  0.1900 VWN1RPA + 0.8100 LYP
 Using Euler-Maclaurin-Lebedev (75,302) quadrature formula
 A restricted SCF calculation will be
 performed using DIIS
 SCF converges when DIIS error is below 1.0e-08
 ---------------------------------------
  Cycle       Energy         DIIS error
 ---------------------------------------
    1    -611.5636680056      5.84e-03  
    2    -611.2829574808      1.51e-03  
    3    -610.6821062591      2.24e-03  
    4    -611.8016357785      8.27e-05  
    5    -611.8018738526      7.81e-05  
    6    -611.8031304730      7.89e-06  
    7    -611.8031428439      1.58e-06  
    8    -611.8031431018      1.21e-06  
    9    -611.8031434051      1.25e-07  
   10    -611.8031434082      3.40e-08  
   11    -611.8031434083      2.01e-08  
   12    -611.8031434084      1.81e-09  Convergence criterion met
 ---------------------------------------
 SCF time:   CPU 362795.37s  wall 11536.00s 
 SCF   energy =  -611.80314341
 Total energy =  -611.80314341

 --------------------------------------------------------------

                    Orbital Energies (a.u.)
 --------------------------------------------------------------

 Alpha MOs
 -- Occupied --
-19.2048 -19.1591 -19.1541 -19.1408 -19.1117 -19.1104 -19.0985 -19.0881
 -1.0957  -1.0463  -1.0363  -1.0325  -1.0115  -0.9928  -0.9719  -0.9672
 -0.5856  -0.5837  -0.5664  -0.5537  -0.5441  -0.5138  -0.4910  -0.4883
 -0.4813  -0.4325  -0.4229  -0.4115  -0.4079  -0.3820  -0.3679  -0.3640
 -0.3598  -0.3514  -0.3355  -0.3313  -0.3109  -0.3023  -0.2851  -0.2783
 -- Virtual --
 -0.0583  -0.0298   0.0042   0.0128   0.0240   0.0302   0.0354   0.0563
  0.0688   0.0725   0.0891   0.1020   0.1205   0.1235   0.1446   0.1632
  0.1669   0.1791   0.1857   0.2012   0.2054   0.2064   0.2107   0.2143
  0.2190   0.2300   0.2346   0.2402   0.2445   0.2461   0.2553   0.2602
  0.2629   0.2677   0.2714   0.2740   0.2827   0.2889   0.2929   0.2967
  0.2997   0.3032   0.3101   0.3245   0.3289   0.3358   0.3395   0.3471
  0.3596   0.3624   0.3701   0.3805   0.3832   0.3898   0.4010   0.4111
  0.4177   0.4240   0.4299   0.4353   0.4461   0.4616   0.4687   0.4813
  0.4856   0.5070   0.5237   0.5292   0.5423   0.5494   0.5587   0.5663
  0.5786   0.5836   0.5894   0.6014   0.6068   0.6183   0.6270   0.6412
  0.6461   0.6541   0.6599   0.6738   0.6803   0.6898   0.6933   0.7020
  0.7057   0.7123   0.7226   0.7379   0.7436   0.7471   0.7546   0.7558
  0.7691   0.7706   0.7737   0.7787   0.7899   0.7983   0.8043   0.8053
  0.8081   0.8141   0.8219   0.8307   0.8393   0.8469   0.8520   0.8631
  0.8662   0.8734   0.8862   0.8907   0.9045   0.9137   0.9264   0.9473
  0.9503   0.9582   0.9663   0.9817   0.9902   1.0117   1.0130   1.0246
  1.0287   1.0341   1.0446   1.0496   1.0658   1.0669   1.0741   1.0863
  1.0892   1.0910   1.1158   1.1185   1.1204   1.1245   1.1295   1.1350
  1.1407   1.1519   1.1591   1.1662   1.1753   1.1825   1.1892   1.2009
  1.2042   1.2121   1.2161   1.2260   1.2357   1.2460   1.2558   1.2721
  1.2903   1.2930   1.2945   1.3069   1.3162   1.3209   1.3358   1.3467
  1.3545   1.3663   1.3829   1.3839   1.3877   1.4007   1.4181   1.4329
  1.4375   1.4497   1.4651   1.4746   1.4834   1.4888   1.4915   1.4995
  1.5115   1.5206   1.5260   1.5322   1.5470   1.5522   1.5607   1.5765
  1.5864   1.5888   1.5933   1.5976   1.6012   1.6125   1.6204   1.6274
  1.6393   1.6459   1.6499   1.6556   1.6595   1.6703   1.6743   1.6773
  1.6847   1.7013   1.7057   1.7105   1.7232   1.7300   1.7362   1.7457
  1.7609   1.7677   1.7716   1.7809   1.7854   1.7931   1.8012   1.8032
  1.8068   1.8137   1.8193   1.8251   1.8305   1.8409   1.8462   1.8480
  1.8568   1.8726   1.8750   1.8804   1.8856   1.8940   1.9017   1.9033
  1.9098   1.9227   1.9243   1.9276   1.9328   1.9390   1.9527   1.9553
  1.9631   1.9801   1.9817   1.9881   1.9928   2.0002   2.0145   2.0194
  2.0285   2.0341   2.0405   2.0461   2.0562   2.0634   2.0721   2.0732
  2.0775   2.0911   2.1091   2.1162   2.1258   2.1398   2.1513   2.1689
  2.1753   2.1900   2.1924   2.2041   2.2127   2.2187   2.2301   2.2400
  2.2418   2.2555   2.2681   2.2755   2.2817   2.2975   2.3052   2.3130
  2.3235   2.3397   2.3581   2.3615   2.3655   2.3667   2.3744   2.3833
  2.3861   2.4054   2.4205   2.4248   2.4284   2.4384   2.4510   2.4530
  2.4744   2.4764   2.4893   2.5064   2.5199   2.5383   2.5439   2.5600
  2.5632   2.5716   2.5751   2.5897   2.6082   2.6171   2.6303   2.6386
  2.6519   2.6574   2.6599   2.6740   2.6814   2.6896   2.6979   2.6999
  2.7173   2.7328   2.7394   2.7483   2.7527   2.7694   2.7736   2.7804
  2.7895   2.7971   2.8015   2.8151   2.8250   2.8276   2.8492   2.8523
  2.8649   2.8783   2.8922   2.9012   2.9065   2.9156   2.9270   2.9401
  2.9446   2.9544   2.9705   2.9841   2.9876   2.9952   3.0093   3.0223
  3.0255   3.0312   3.0583   3.0612   3.0662   3.0822   3.0885   3.1002
  3.1128   3.1175   3.1309   3.1427   3.1524   3.1700   3.1789   3.1941
  3.2028   3.2112   3.2262   3.2386   3.2443   3.2590   3.2705   3.2766
  3.2775   3.2925   3.2990   3.3121   3.3217   3.3298   3.3375   3.3559
  3.3725   3.3801   3.3865   3.3955   3.4145   3.4194   3.4239   3.4403
  3.4561   3.4626   3.4785   3.4883   3.4897   3.4975   3.5150   3.5171
  3.5293   3.5439   3.5515   3.5568   3.5736   3.5769   3.5910   3.6067
  3.6124   3.6176   3.6247   3.6333   3.6471   3.6507   3.6585   3.6659
  3.6700   3.7002   3.7064   3.7153   3.7276   3.7316   3.7375   3.7470
  3.7583   3.7710   3.7780   3.7871   3.7946   3.8076   3.8164   3.8239
  3.8294   3.8345   3.8439   3.8706   3.8785   3.8893   3.9001   3.9139
  3.9265   3.9341   3.9401   3.9435   3.9580   3.9763   3.9821   3.9896
  4.0040   4.0169   4.0271   4.0288   4.0428   4.0629   4.0710   4.0851
  4.1102   4.1150   4.1252   4.1349   4.1553   4.1768   4.1892   4.1949
  4.2193   4.2429   4.2480   4.2654   4.2898   4.2966   4.3062   4.3092
  4.3246   4.3410   4.3478   4.3747   4.3907   4.4008   4.4111   4.4164
  4.4362   4.4416   4.4476   4.4576   4.4656   4.4800   4.4830   4.4887
  4.4920   4.4992   4.5080   4.5189   4.5208   4.5228   4.5391   4.5417
  4.5489   4.5540   4.5602   4.5707   4.5788   4.5809   4.5883   4.5919
  4.5998   4.6124   4.6173   4.6288   4.6362   4.6413   4.6567   4.6616
  4.6663   4.6703   4.6754   4.6843   4.6865   4.7057   4.7171   4.7264
  4.7269   4.7360   4.7473   4.7517   4.7612   4.7688   4.7772   4.7847
  4.7884   4.7903   4.8049   4.8167   4.8241   4.8289   4.8337   4.8457
  4.8486   4.8615   4.8652   4.8700   4.8731   4.8785   4.8963   4.9011
  4.9130   4.9157   4.9254   4.9311   4.9434   4.9645   4.9693   4.9778
  4.9886   4.9914   5.0049   5.0085   5.0222   5.0278   5.0473   5.0518
  5.0569   5.0623   5.0686   5.0949   5.1086   5.1116   5.1223   5.1342
  5.1458   5.1551   5.1703   5.1781   5.1858   5.2059   5.2200   5.2284
  5.2342   5.2359   5.2508   5.2551   5.2696   5.2953   5.2986   5.3113
  5.3168   5.3375   5.3432   5.3617   5.3656   5.3683   5.3830   5.3916
  5.3939   5.4124   5.4220   5.4285   5.4449   5.4561   5.4609   5.4910
  5.5170   5.5316   5.5386   5.5450   5.5563   5.5688   5.5862   5.5867
  5.6082   5.6198   5.6288   5.6513   5.6678   5.6871   5.7012   5.7221
  5.7292   5.7350   5.7467   5.7533   5.7618   5.7856   5.7989   5.8517
  5.8542   5.8708   5.9163   5.9338   5.9450   5.9670   6.0115   6.0229
  6.0253   6.0378   6.0539   6.0749   6.0761   6.1137   6.1232   6.1367
  6.1566   6.1729   6.1906   6.2125   6.2265   6.2349   6.2487   6.2636
  6.2665   6.2823   6.3058   6.3084   6.3147   6.3214   6.3284   6.3504
  6.3583   6.3659   6.3879   6.3979   6.4087   6.4219   6.4420   6.4522
  6.4842   6.4879   6.5127   6.5315   6.5348   6.5676   6.5753   6.5889
  6.5934   6.6050   6.6129   6.6323   6.6427   6.6536   6.6660   6.6885
  6.6908   6.7096   6.7136   6.7215   6.7266   6.7281   6.7483   6.7541
  6.7657   6.7729   6.7814   6.7948   6.8001   6.8087   6.8201   6.8230
  6.8461   6.8555   6.8698   6.8765   6.8781   6.8834   6.9029   6.9082
  6.9166   6.9195   6.9255   6.9348   6.9534   6.9573   6.9744   6.9889
  6.9953   7.0041   7.0154   7.0225   7.0326   7.0366   7.0493   7.0766
  7.0881   7.1098   7.1271   7.1361   7.1488   7.1560   7.1639   7.1744
  7.1995   7.2158   7.2224   7.2373   7.2570   7.2738   7.2812   7.2958
  7.3072   7.3180   7.3323   7.3415   7.3562   7.3675   7.3746   7.3828
  7.3973   7.4142   7.4222   7.4306   7.4423   7.4573   7.4645   7.4808
  7.4964   7.5097   7.5334   7.5533   7.5558   7.5793   7.5879   7.6106
  7.6132   7.6232   7.6255   7.6476   7.6688   7.6734   7.7049   7.7103
  7.7268   7.7433   7.7667   7.7813   7.7899   7.7950   7.8012   7.8145
  7.8326   7.8344   7.8427   7.8604   7.8997   7.9093   7.9217   7.9251
  7.9377   7.9504   7.9580   7.9962   8.0133   8.0282   8.0589   8.0799
  8.0945   8.1479   8.1599   8.1885   8.2390   8.2413   8.2448   8.2872
  8.3249   8.3335   8.3447   8.3791   8.4072   8.4199   8.4860   8.5390
  8.5605   8.6000   8.6880   8.7113   8.7825   8.7907   8.8442   8.9492
  8.9672   8.9901   9.0033   9.0283   9.0689   9.0961   9.1012   9.1109
  9.1185   9.1416   9.1560   9.1632   9.1827   9.1875   9.2214   9.2391
  9.2688   9.2723   9.2928   9.3621   9.4028   9.4105   9.4973   9.5841
  9.6140   9.6409   9.6521   9.6614   9.6824   9.7035   9.7130   9.7187
  9.7191   9.7672   9.7794   9.8056   9.8423   9.8637   9.8836   9.8913
  9.9070   9.9125   9.9195   9.9292   9.9743  10.0315  10.1312  10.2098
 11.5945  11.6922  11.7083  11.7156  11.7271  11.7358  11.7406  11.7466
 11.7630  11.7666  11.7810  11.7948  11.8010  11.8042  11.8170  11.8219
 11.8280  11.8402  11.8562  11.8643  11.8837  11.8880  11.8954  11.9109
 11.9265  11.9445  11.9509  11.9545  11.9605  11.9826  11.9904  11.9974
 12.0043  12.0159  12.0209  12.0329  12.0458  12.0471  12.0594  12.0632
 12.0775  12.0867  12.0975  12.1071  12.1164  12.1194  12.1353  12.1464
 12.1531  12.1610  12.1657  12.1662  12.1704  12.1782  12.1801  12.1874
 12.1945  12.1949  12.1986  12.2009  12.2077  12.2085  12.2144  12.2182
 12.2263  12.2293  12.2312  12.2376  12.2403  12.2439  12.2530  12.2564
 12.2588  12.2682  12.2725  12.2863  12.2906  12.2989  12.3041  12.3078
 12.3118  12.3151  12.3237  12.3326  12.3426  12.3434  12.3512  12.3558
 12.3612  12.3642  12.3767  12.4006  12.4041  12.4166  12.4208  12.4349
 12.4365  12.4508  12.4562  12.4608  12.4665  12.4733  12.4814  12.5047
 12.5153  12.5165  12.5277  12.5413  12.5588  12.5674  12.5698  12.5850
 12.5887  12.5940  12.6042  12.6125  12.6233  12.6321  12.6375  12.6499
 12.6552  12.6667  12.6682  12.6918  12.6947  12.7034  12.7167  12.7247
 12.7335  12.7384  12.7422  12.7495  12.7597  12.7610  12.7721  12.7904
 12.8016  12.8101  12.8255  12.8398  12.8463  12.8671  12.8794  12.8814
 12.8874  12.8933  12.8990  12.9125  12.9330  12.9375  12.9558  12.9589
 12.9640  12.9697  12.9894  13.0074  13.0315  13.0468  13.0537  13.0704
 13.0767  13.1070  13.1175  13.1313  13.1585  13.1625  13.1820  13.2200
 13.2333  13.2517  13.2539  13.2643  13.2681  13.2818  13.2867  13.2945
 13.2995  13.3048  13.3104  13.3161  13.3221  13.3388  13.3457  13.3500
 13.3540  13.3633  13.3781  13.3829  13.3855  13.3944  13.3989  13.4085
 13.4155  13.4195  13.4282  13.4377  13.4424  13.4489  13.4506  13.4683
 13.4732  13.4812  13.4899  13.5059  13.5157  13.5207  13.5217  13.5357
 13.5404  13.5442  13.5526  13.5596  13.5617  13.5638  13.5721  13.5762
 13.5786  13.5887  13.5920  13.5975  13.5981  13.6089  13.6131  13.6169
 13.6291  13.6316  13.6385  13.6447  13.6513  13.6627  13.6651  13.6718
 13.6819  13.6909  13.7092  13.7161  13.7284  13.7345  13.7481  13.7530
 13.7577  13.7756  13.7817  13.7845  13.7977  13.8097  13.8152  13.8190
 13.8407  13.8533  13.8694  13.8732  13.8993  13.9168  13.9262  13.9330
 13.9410  13.9583  13.9718  13.9943  13.9998  14.0131  14.0214  14.0297
 14.0385  14.0496  14.0772  14.0902  14.0968  14.1090  14.1288  14.1356
 14.1451  14.1485  14.1577  14.1705  14.1951  14.1986  14.2146  14.2251
 14.2402  14.2504  14.2542  14.2790  14.2931  14.3066  14.3140  14.3182
 14.3205  14.3604  14.3747  14.4129  14.4240  14.4545  14.5145  14.5450
 14.5589  14.5712  14.5834  14.5902  14.6277  14.6389  14.6715  14.6799
 14.6832  14.7962  14.7997  14.8058  14.8542  14.9847  15.0621  15.1177
 15.1472  15.1852  15.2178  15.2226  15.2265  15.2356  15.2486  15.3394
 15.4156  15.4203  15.4600  15.4779  15.4841  15.4970  15.5365  15.5412
 15.5550  15.5993  15.6261  15.6404  15.6544  15.6779  15.6835  15.6896
 15.7095  15.7445  15.8006  15.8073  15.8312  15.8352  15.8537  15.8698
 15.8830  15.9006  15.9123  15.9219  15.9411  15.9499  15.9535  15.9640
 15.9947  16.0234  16.0297  16.0486  16.0570  16.0650  16.0725  16.0838
 16.0957  16.1101  16.1185  16.1189  16.1359  16.1578  16.1680  16.1741
 16.1865  16.1886  16.1944  16.2012  16.2040  16.2125  16.2173  16.2189
 16.2305  16.2391  16.2409  16.2475  16.2566  16.2623  16.2719  16.2765
 16.2978  16.3038  16.3112  16.3180  16.3301  16.3356  16.3409  16.3503
 16.3609  16.3728  16.3884  16.3903  16.4042  16.4205  16.4500  16.4723
 16.4792  16.4997  16.5148  16.5288  16.5454  16.6126  16.6165  16.6627
 16.6787  16.7196  16.7270  16.8050  16.8706  16.8738  16.8995  16.9936
 17.0014  17.0067  17.0356  17.0439  17.0475  17.0594  17.0794  17.0830
 17.0882  17.1155  17.1625  17.1868  17.2441  17.2586  17.2647  17.2687
 17.2780  17.2903  17.2987  17.3152  17.3207  17.3349  17.3484  17.3507
 17.3692  17.3757  17.3921  17.3981  17.4303  17.4424  17.4614  17.4980
 17.5245  17.5412  17.5530  17.5670  17.5887  17.6054  17.6247  17.6356
 17.6559  17.6620  17.7010  17.7082  17.7224  17.7264  17.7322  17.7482
 17.7697  17.7751  17.7894  17.8130  17.8186  17.9117  17.9193  17.9607
 18.0172  18.0281  18.0404  18.0519  18.0673  18.1017  18.1244  18.1409
 18.1539  18.1838  18.1967  18.2095  18.2252  18.2509  18.2624  18.2691
 18.2737  18.2747  18.2834  18.2925  18.3279  18.3420  18.3522  18.3817
 18.3991  18.4069  18.4279  18.4317  18.4352  18.4472  18.4522  18.4530
 18.4629  18.4692  18.4834  18.4959  18.5033  18.5295  18.5420  18.5585
 18.5682  18.6092  18.6153  18.6304  18.6634  18.6924  18.7229  18.7393
 18.7530  18.7804  18.7951  18.8098  18.8190  18.8691  18.8838  18.9102
 18.9109  18.9187  18.9497  18.9694  18.9863  19.0172  19.0329  19.0615
 19.0754  19.1899  19.1973  19.2595  19.2752  19.2862  19.2900  19.3016
 19.3207  19.3322  19.3356  19.3497  19.3758  19.3853  19.4085  19.4255
 19.4365  19.4462  19.4494  19.4728  19.4821  19.4839  19.5036  19.5332
 19.5351  19.5537  19.5648  19.5826  19.5919  19.6046  19.6330  19.6396
 19.6455  19.6599  19.6687  19.6848  19.7228  19.7319  19.7852  19.7870
 19.7979  19.8022  19.8371  19.8866  19.9162  20.0526  20.0824  20.1738
 20.5693  20.6182  20.6426  20.6695  20.6772  20.6916  20.7290  20.7484
 20.8097  20.8173  20.8403  20.8698  20.8839  20.9951  21.0725  21.3839
 21.8595  21.8714  21.8998  21.9221  21.9365  21.9490  21.9512  21.9687
 21.9789  21.9952  22.0015  22.0088  22.0476  22.0980  22.1438  22.1857
 22.2322  22.2680  22.2964  22.3271  22.3373  22.3431  22.3780  22.4275
 22.4437  22.4873  22.6344  22.6909  22.7117  22.7689  22.8053  22.8453
 22.9554  22.9699  22.9907  22.9914  23.0014  23.0221  23.0252  23.0625
 23.0748  23.0884  23.0900  23.1084  23.1597  23.1841  23.2339  23.2571
 23.3524  23.3572  23.4326  23.4443  23.4596  23.5565  24.0775  24.1171
 24.1751  24.2671  24.2904  24.3603  24.4268  24.4367  24.4471  24.5424
 24.5904  24.6079  24.6255  24.6337  24.6770  24.9210  24.9810  25.0224
 25.0531  25.0758  25.1134  25.1181  25.1739  25.2573  25.3330  25.3567
 25.6224  25.6706  25.7978  25.8687  25.9208  26.1974  26.3430  26.9803
 63.8901  64.0442  64.1808  64.2289  64.3055  64.3398  64.7023  64.7732
 --------------------------------------------------------------


                        RESTRICTED (RHF) MOLECULAR ORBITAL COEFFICIENTS
                         1         2         3         4         5         6
 eigenvalues:        -19.205   -19.159   -19.154   -19.141   -19.112   -19.110
   1  O 1   s       -0.00001  -0.00006   0.00001   0.97866  -0.00002   0.00001
   2  O 1   s       -0.00002  -0.00004  -0.00001   0.03118   0.00003   0.00002
   3  O 1   s       -0.00004  -0.00007  -0.00001   0.08542   0.00003   0.00003
   4  O 1   s        0.00022  -0.00014   0.00021  -0.01622  -0.00019   0.00003
   5  O 1   s       -0.00100   0.00306  -0.00123  -0.01707   0.00085  -0.00089
   6  O 1   s       -0.00125   0.00519  -0.00144  -0.00791  -0.00122  -0.00055
   7  O 1   px       0.00000   0.00000  -0.00000   0.00099   0.00000   0.00000
   8  O 1   py       0.00001   0.00000  -0.00000  -0.00017   0.00000   0.00000
   9  O 1   pz      -0.00000   0.00000   0.00000  -0.00046  -0.00000   0.00000
  10  O 1   px      -0.00001  -0.00005   0.00002   0.00077  -0.00003   0.00001
  11  O 1   py      -0.00003  -0.00004  -0.00000  -0.00007  -0.00000  -0.00004
  12  O 1   pz       0.00002  -0.00000  -0.00003  -0.00031   0.00004  -0.00002
  13  O 1   px      -0.00002   0.00068  -0.00017  -0.00971   0.00022  -0.00009
  14  O 1   py      -0.00005   0.00042   0.00001   0.00054   0.00007   0.00032
  15  O 1   pz      -0.00012  -0.00010   0.00018   0.00409  -0.00020   0.00015
  16  O 1   px      -0.00034   0.00179  -0.00028  -0.00176  -0.00019  -0.00016
  17  O 1   py       0.00063   0.00115   0.00025  -0.00110  -0.00008   0.00046
  18  O 1   pz       0.00023  -0.00034   0.00076   0.00033   0.00021   0.00028
  19  O 1   px       0.00021   0.00062  -0.00044  -0.00022  -0.00008  -0.00011
  20  O 1   py       0.00045   0.00013   0.00023  -0.00033   0.00023   0.00008
  21  O 1   pz       0.00064  -0.00024  -0.00005   0.00026   0.00013  -0.00013
  22  O 1   d 1      0.00000  -0.00000   0.00000   0.00008  -0.00000  -0.00000
  23  O 1   d 2      0.00000  -0.00000   0.00000   0.00012   0.00000   0.00000
  24  O 1   d 3      0.00000   0.00000  -0.00000  -0.00017   0.00000  -0.00000
  25  O 1   d 4     -0.00000  -0.00000  -0.00000  -0.00009  -0.00000  -0.00000
  26  O 1   d 5      0.00001   0.00000   0.00000  -0.00007  -0.00000  -0.00000
  27  O 1   d 1     -0.00001  -0.00000  -0.00001  -0.00015  -0.00000  -0.00000
  28  O 1   d 2     -0.00000   0.00000  -0.00001  -0.00020  -0.00000   0.00000
  29  O 1   d 3     -0.00002  -0.00000   0.00000   0.00029  -0.00001   0.00000
  30  O 1   d 4      0.00001   0.00000  -0.00000   0.00016   0.00001   0.00000
  31  O 1   d 5     -0.00004  -0.00001  -0.00001   0.00010   0.00001  -0.00000
  32  O 1   d 1     -0.00010   0.00034  -0.00001  -0.00139   0.00010   0.00010
  33  O 1   d 2      0.00006  -0.00000   0.00001  -0.00136   0.00000  -0.00011
  34  O 1   d 3      0.00016  -0.00023   0.00005   0.00230  -0.00010   0.00002
  35  O 1   d 4     -0.00008  -0.00005   0.00009   0.00116  -0.00001   0.00003
  36  O 1   d 5      0.00021   0.00004   0.00012   0.00091  -0.00007   0.00011
  37  O 1   d 1      0.00019   0.00039  -0.00007   0.00008   0.00018   0.00008
  38  O 1   d 2      0.00002   0.00004   0.00001   0.00035  -0.00025  -0.00012
  39  O 1   d 3      0.00017  -0.00031   0.00004  -0.00089   0.00023  -0.00004
  40  O 1   d 4      0.00006  -0.00001   0.00041  -0.00088  -0.00007   0.00006
  41  O 1   d 5      0.00014  -0.00011   0.00036  -0.00037  -0.00012   0.00003
  42  O 1   f 1      0.00001  -0.00000   0.00000   0.00010  -0.00001   0.00000
  43  O 1   f 2     -0.00001  -0.00000  -0.00000   0.00003   0.00000   0.00000
  44  O 1   f 3      0.00001   0.00000  -0.00000  -0.00004  -0.00000   0.00000
  45  O 1   f 4      0.00000  -0.00000   0.00000   0.00005   0.00001  -0.00000
  46  O 1   f 5     -0.00000   0.00000  -0.00000  -0.00005   0.00000   0.00000
  47  O 1   f 6      0.00001   0.00000   0.00000   0.00005   0.00000   0.00000
  48  O 1   f 7     -0.00000   0.00000  -0.00000  -0.00011   0.00000  -0.00000
  49  O 1   f 1     -0.00005   0.00005  -0.00001  -0.00082   0.00003  -0.00001
  50  O 1   f 2      0.00003   0.00000   0.00000  -0.00024  -0.00001  -0.00001
  51  O 1   f 3     -0.00003  -0.00003   0.00001   0.00033   0.00001  -0.00000
  52  O 1   f 4     -0.00000   0.00001  -0.00001  -0.00049  -0.00003  -0.00001
  53  O 1   f 5      0.00002  -0.00004   0.00000   0.00046  -0.00001  -0.00000
  54  O 1   f 6     -0.00002  -0.00000  -0.00001  -0.00039  -0.00000  -0.00002
  55  O 1   f 7      0.00002  -0.00003   0.00002   0.00088  -0.00002   0.00002
  56  O 1   f 1     -0.00001   0.00002  -0.00000   0.00034   0.00011   0.00001
  57  O 1   f 2      0.00004   0.00001   0.00007   0.00005  -0.00011  -0.00002
  58  O 1   f 3     -0.00007  -0.00006   0.00002  -0.00009   0.00000   0.00001
  59  O 1   f 4      0.00000  -0.00002  -0.00012   0.00028   0.00019  -0.00001
  60  O 1   f 5      0.00003  -0.00005  -0.00004  -0.00015  -0.00001  -0.00001
  61  O 1   f 6     -0.00001   0.00000  -0.00002   0.00017   0.00009  -0.00003
  62  O 1   f 7      0.00007  -0.00010   0.00013  -0.00033   0.00001   0.00001
  63  O 1   g 1     -0.00000   0.00000  -0.00000  -0.00009  -0.00000  -0.00000
  64  O 1   g 2      0.00000  -0.00000  -0.00000   0.00005   0.00000   0.00000
  65  O 1   g 3      0.00000  -0.00000  -0.00000   0.00008  -0.00000  -0.00000
  66  O 1   g 4      0.00000   0.00000   0.00000   0.00004  -0.00000   0.00000
  67  O 1   g 5     -0.00000   0.00000  -0.00000  -0.00002  -0.00001   0.00000
  68  O 1   g 6      0.00000   0.00000   0.00000  -0.00005   0.00000  -0.00000
  69  O 1   g 7     -0.00000  -0.00000   0.00000   0.00002  -0.00000  -0.00000
  70  O 1   g 8     -0.00000   0.00000  -0.00000  -0.00008  -0.00000  -0.00000
  71  O 1   g 9     -0.00000  -0.00000  -0.00000   0.00009  -0.00000  -0.00000
  72  O 1   g 1     -0.00000  -0.00002   0.00001   0.00001   0.00001  -0.00000
  73  O 1   g 2      0.00002   0.00001   0.00002   0.00001  -0.00003   0.00001
  74  O 1   g 3     -0.00003  -0.00001   0.00001   0.00001   0.00001   0.00000
  75  O 1   g 4      0.00001   0.00000  -0.00001   0.00001   0.00001  -0.00000
  76  O 1   g 5     -0.00002   0.00001   0.00001  -0.00002   0.00003   0.00000
  77  O 1   g 6      0.00000  -0.00001  -0.00002   0.00003  -0.00001   0.00000
  78  O 1   g 7     -0.00001   0.00000  -0.00001   0.00000   0.00001   0.00000
  79  O 1   g 8      0.00001  -0.00001  -0.00001  -0.00000   0.00001  -0.00000
  80  O 1   g 9     -0.00002  -0.00002   0.00001   0.00003   0.00002  -0.00001
  81  O 1   h 1      0.00000  -0.00000   0.00000   0.00001  -0.00000   0.00000
  82  O 1   h 2      0.00000   0.00000   0.00000   0.00005   0.00000   0.00000
  83  O 1   h 3     -0.00000  -0.00000  -0.00000   0.00003   0.00000  -0.00000
  84  O 1   h 4      0.00000  -0.00000  -0.00000   0.00001   0.00000  -0.00000
  85  O 1   h 5      0.00000   0.00000  -0.00000  -0.00005   0.00000  -0.00000
  86  O 1   h 6      0.00000   0.00000   0.00000   0.00003   0.00000  -0.00000
  87  O 1   h 7     -0.00000   0.00000   0.00000  -0.00002  -0.00000   0.00000
  88  O 1   h 8      0.00000   0.00000  -0.00000   0.00002  -0.00000   0.00000
  89  O 1   h 9     -0.00001   0.00000  -0.00000  -0.00001   0.00000   0.00000
  90  O 1   h10      0.00001  -0.00000  -0.00000  -0.00002  -0.00000   0.00000
  91  O 1   h11     -0.00001  -0.00000  -0.00000   0.00002   0.00000  -0.00000
  92  H 1   s        0.00001  -0.00000  -0.00000  -0.00016   0.00001   0.00000
  93  H 1   s       -0.00006   0.00007  -0.00004  -0.00176  -0.00003  -0.00014
  94  H 1   s        0.00070  -0.00040   0.00091   0.00870  -0.00004   0.00093
  95  H 1   s        0.00117  -0.00144   0.00144   0.00372   0.00098   0.00076
  96  H 1   s        0.00158  -0.00001   0.00015  -0.00067  -0.00037  -0.00011
  97  H 1   px       0.00001   0.00001  -0.00000   0.00007   0.00000   0.00000
  98  H 1   py      -0.00001  -0.00000  -0.00000  -0.00017   0.00000  -0.00001
  99  H 1   pz       0.00000  -0.00000  -0.00000  -0.00009  -0.00000  -0.00001
 100  H 1   px      -0.00001  -0.00003   0.00002   0.00005  -0.00002   0.00001
 101  H 1   py       0.00005   0.00003  -0.00000   0.00004  -0.00002   0.00001
 102  H 1   pz      -0.00002   0.00002   0.00002   0.00001   0.00000   0.00001
 103  H 1   px      -0.00010   0.00009  -0.00022  -0.00298   0.00027  -0.00022
 104  H 1   py      -0.00009  -0.00022   0.00034   0.00615   0.00003   0.00041
 105  H 1   pz       0.00032  -0.00012   0.00011   0.00325  -0.00009   0.00017
 106  H 1   px      -0.00033   0.00029  -0.00008  -0.00139  -0.00003  -0.00015
 107  H 1   py       0.00080  -0.00041   0.00068   0.00288   0.00035   0.00060
 108  H 1   pz       0.00037  -0.00027   0.00037   0.00130   0.00004   0.00023
 109  H 1   d 1     -0.00000  -0.00000   0.00001   0.00013  -0.00001   0.00001
 110  H 1   d 2      0.00001   0.00000  -0.00000  -0.00013   0.00000  -0.00000
 111  H 1   d 3     -0.00001  -0.00000   0.00000   0.00004  -0.00001  -0.00000
 112  H 1   d 4      0.00000   0.00000   0.00000   0.00008  -0.00000   0.00001
 113  H 1   d 5     -0.00003  -0.00000   0.00000   0.00008   0.00001   0.00000
 114  H 1   d 1     -0.00002   0.00000  -0.00005  -0.00136   0.00004  -0.00009
 115  H 1   d 2      0.00001  -0.00001   0.00003   0.00154  -0.00003   0.00004
 116  H 1   d 3      0.00007   0.00001  -0.00002  -0.00051   0.00002  -0.00001
 117  H 1   d 4     -0.00004  -0.00001  -0.00001  -0.00078   0.00002  -0.00005
 118  H 1   d 5      0.00012   0.00002  -0.00002  -0.00105  -0.00004  -0.00003
 119  H 1   d 1     -0.00002   0.00012  -0.00005  -0.00193   0.00008  -0.00007
 120  H 1   d 2      0.00017  -0.00012   0.00009   0.00208  -0.00000   0.00016
 121  H 1   d 3      0.00014   0.00002  -0.00005  -0.00081  -0.00008  -0.00011
 122  H 1   d 4     -0.00010   0.00004  -0.00007  -0.00079   0.00012  -0.00003
 123  H 1   d 5      0.00006   0.00010  -0.00010  -0.00173  -0.00010  -0.00014
 124  H 1   f 1     -0.00000   0.00000   0.00000  -0.00004  -0.00000   0.00000
 125  H 1   f 2     -0.00001  -0.00000  -0.00000  -0.00016   0.00000  -0.00000
 126  H 1   f 3     -0.00000   0.00000  -0.00000  -0.00000  -0.00000  -0.00000
 127  H 1   f 4     -0.00001   0.00000   0.00000  -0.00014   0.00000  -0.00001
 128  H 1   f 5     -0.00000  -0.00000   0.00000   0.00001  -0.00000   0.00000
 129  H 1   f 6     -0.00000  -0.00000  -0.00000  -0.00011  -0.00000  -0.00000
 130  H 1   f 7     -0.00000   0.00000   0.00000   0.00017  -0.00000   0.00000
 131  H 1   f 1      0.00011   0.00001  -0.00001  -0.00021  -0.00004  -0.00001
 132  H 1   f 2     -0.00004   0.00001  -0.00002  -0.00081   0.00004  -0.00004
 133  H 1   f 3      0.00009  -0.00000  -0.00001  -0.00005  -0.00002   0.00001
 134  H 1   f 4      0.00002   0.00001  -0.00002  -0.00070  -0.00001  -0.00002
 135  H 1   f 5     -0.00002  -0.00000  -0.00001   0.00003   0.00002   0.00000
 136  H 1   f 6      0.00004   0.00002  -0.00001  -0.00072  -0.00001  -0.00002
 137  H 1   f 7     -0.00001  -0.00003   0.00001   0.00088   0.00000   0.00005
 138  H 1   g 1     -0.00001  -0.00000   0.00000   0.00011   0.00000   0.00000
 139  H 1   g 2      0.00001   0.00000   0.00000  -0.00003  -0.00000   0.00000
 140  H 1   g 3     -0.00001  -0.00000  -0.00000  -0.00003   0.00000  -0.00000
 141  H 1   g 4      0.00001   0.00000  -0.00000  -0.00011  -0.00000  -0.00000
 142  H 1   g 5     -0.00001   0.00000   0.00000  -0.00004   0.00000  -0.00000
 143  H 1   g 6     -0.00000  -0.00000   0.00000   0.00006   0.00000   0.00000
 144  H 1   g 7     -0.00001   0.00000  -0.00000  -0.00002   0.00000   0.00000
 145  H 1   g 8      0.00000  -0.00000   0.00000   0.00014  -0.00000   0.00001
 146  H 1   g 9     -0.00001  -0.00000   0.00000  -0.00002   0.00000  -0.00000
 147  H 2   s        0.00000   0.00000  -0.00001  -0.00022   0.00001   0.00000
 148  H 2   s       -0.00008   0.00028  -0.00000  -0.00177   0.00001  -0.00001
 149  H 2   s        0.00040  -0.00302   0.00060   0.01210  -0.00042  -0.00011
 150  H 2   s       -0.00027  -0.00353   0.00024   0.00546   0.00007  -0.00014
 151  H 2   s       -0.00091  -0.00014  -0.00045   0.00011   0.00025  -0.00003
 152  H 2   px       0.00000  -0.00001   0.00000   0.00018   0.00000  -0.00000
 153  H 2   py      -0.00001  -0.00000   0.00000   0.00015  -0.00001  -0.00000
 154  H 2   pz       0.00000   0.00000  -0.00000  -0.00001  -0.00000  -0.00000
 155  H 2   px       0.00001  -0.00001  -0.00001  -0.00015  -0.00001   0.00002
 156  H 2   py       0.00004  -0.00003  -0.00002  -0.00019   0.00002   0.00001
 157  H 2   pz      -0.00000  -0.00001   0.00002  -0.00006   0.00001   0.00000
 158  H 2   px      -0.00026   0.00107  -0.00037  -0.00744   0.00032   0.00000
 159  H 2   py      -0.00019   0.00078  -0.00005  -0.00581   0.00018   0.00002
 160  H 2   pz       0.00002  -0.00021  -0.00025   0.00143   0.00012  -0.00002
 161  H 2   px      -0.00005   0.00193  -0.00012  -0.00379  -0.00009   0.00010
 162  H 2   py       0.00016   0.00139   0.00030  -0.00290   0.00010   0.00013
 163  H 2   pz      -0.00022  -0.00043  -0.00017   0.00053   0.00010   0.00007
 164  H 2   d 1     -0.00000   0.00003  -0.00000  -0.00015   0.00001   0.00000
 165  H 2   d 2     -0.00000  -0.00001   0.00000   0.00003   0.00000  -0.00000
 166  H 2   d 3      0.00000  -0.00001   0.00001   0.00008  -0.00001   0.00000
 167  H 2   d 4      0.00001  -0.00001  -0.00000   0.00004  -0.00000   0.00000
 168  H 2   d 5      0.00000   0.00001  -0.00000  -0.00004   0.00000  -0.00000
 169  H 2   d 1      0.00003  -0.00024   0.00005   0.00239  -0.00006  -0.00001
 170  H 2   d 2      0.00000   0.00007   0.00002  -0.00037  -0.00002   0.00001
 171  H 2   d 3     -0.00003   0.00013  -0.00006  -0.00136   0.00006   0.00000
 172  H 2   d 4     -0.00003   0.00009   0.00001  -0.00050   0.00000   0.00000
 173  H 2   d 5      0.00003  -0.00008   0.00003   0.00057  -0.00002   0.00000
 174  H 2   d 1      0.00009  -0.00035   0.00001   0.00348  -0.00012  -0.00000
 175  H 2   d 2      0.00002   0.00002   0.00018  -0.00064   0.00001  -0.00002
 176  H 2   d 3     -0.00008   0.00023   0.00001  -0.00195  -0.00001   0.00002
 177  H 2   d 4      0.00005   0.00005   0.00017  -0.00063  -0.00012  -0.00000
 178  H 2   d 5      0.00008  -0.00013   0.00025   0.00081   0.00002   0.00002
 179  H 2   f 1     -0.00000   0.00001  -0.00000  -0.00023   0.00000   0.00000
 180  H 2   f 2      0.00000  -0.00000  -0.00000   0.00007   0.00000  -0.00000
 181  H 2   f 3     -0.00000   0.00000   0.00000   0.00011  -0.00001   0.00000
 182  H 2   f 4     -0.00000   0.00000  -0.00000  -0.00007   0.00001   0.00000
 183  H 2   f 5      0.00000  -0.00000   0.00000   0.00015  -0.00001   0.00000
 184  H 2   f 6      0.00000   0.00000  -0.00000   0.00002  -0.00000  -0.00000
 185  H 2   f 7     -0.00000  -0.00000  -0.00000   0.00010   0.00000  -0.00000
 186  H 2   f 1     -0.00003   0.00013  -0.00005  -0.00118   0.00003  -0.00000
 187  H 2   f 2     -0.00001  -0.00007  -0.00004   0.00038  -0.00002   0.00000
 188  H 2   f 3      0.00001  -0.00007   0.00000   0.00061   0.00000  -0.00001
 189  H 2   f 4      0.00000   0.00005   0.00003  -0.00029  -0.00004  -0.00000
 190  H 2   f 5      0.00002  -0.00009   0.00003   0.00075  -0.00001  -0.00000
 191  H 2   f 6      0.00001  -0.00002   0.00002   0.00010   0.00003  -0.00000
 192  H 2   f 7     -0.00002  -0.00005  -0.00002   0.00058  -0.00003  -0.00001
 193  H 2   g 1      0.00000  -0.00000   0.00001   0.00007  -0.00000   0.00000
 194  H 2   g 2     -0.00000   0.00001   0.00000  -0.00004   0.00000  -0.00000
 195  H 2   g 3     -0.00000   0.00000  -0.00000  -0.00010  -0.00000  -0.00000
 196  H 2   g 4     -0.00000  -0.00000  -0.00000   0.00004   0.00000   0.00000
 197  H 2   g 5      0.00000  -0.00000   0.00000   0.00007  -0.00000  -0.00000
 198  H 2   g 6      0.00000  -0.00000  -0.00000   0.00005   0.00000   0.00000
 199  H 2   g 7     -0.00000   0.00000  -0.00000  -0.00002   0.00000  -0.00000
 200  H 2   g 8     -0.00000  -0.00000  -0.00000   0.00002  -0.00000  -0.00000
 201  H 2   g 9      0.00000   0.00001  -0.00000  -0.00013   0.00000   0.00000
 202  O 2   s       -0.00001  -0.00004  -0.00000  -0.00001   0.00001  -0.00000
 203  O 2   s       -0.00001  -0.00003  -0.00000  -0.00001   0.00001  -0.00000
 204  O 2   s       -0.00001  -0.00004  -0.00000  -0.00002   0.00001  -0.00000
 205  O 2   s       -0.00001  -0.00001   0.00002   0.00000   0.00001  -0.00000
 206  O 2   s        0.00036   0.00061  -0.00002   0.00037  -0.00029   0.00007
 207  O 2   s        0.00034   0.00025  -0.00012   0.00006  -0.00005   0.00006
 208  O 2   px       0.00000   0.00000  -0.00000   0.00000  -0.00000   0.00000
 209  O 2   py      -0.00000  -0.00000   0.00000  -0.00000   0.00000  -0.00000
 210  O 2   pz      -0.00000  -0.00000  -0.00000  -0.00000   0.00000  -0.00000
 211  O 2   px      -0.00000  -0.00006  -0.00000  -0.00000   0.00000  -0.00000
 212  O 2   py       0.00001   0.00003  -0.00001   0.00001  -0.00001   0.00000
 213  O 2   pz       0.00001  -0.00001   0.00000   0.00001  -0.00001   0.00000
 214  O 2   px       0.00001   0.00047   0.00001  -0.00001  -0.00001   0.00000
 215  O 2   py      -0.00007  -0.00010   0.00002  -0.00011   0.00007  -0.00002
 216  O 2   pz      -0.00006   0.00016   0.00000  -0.00008   0.00005  -0.00001
 217  O 2   px       0.00007   0.00107  -0.00003  -0.00010  -0.00004   0.00000
 218  O 2   py      -0.00009   0.00046   0.00002  -0.00000   0.00002  -0.00003
 219  O 2   pz      -0.00010   0.00080   0.00003  -0.00009   0.00012  -0.00002
 220  O 2   px       0.00004   0.00019  -0.00001  -0.00005  -0.00002   0.00000
 221  O 2   py      -0.00004   0.00015   0.00005   0.00002  -0.00001  -0.00000
 222  O 2   pz       0.00001   0.00018   0.00002  -0.00003   0.00001  -0.00001
 223  O 2   d 1     -0.00000   0.00000  -0.00000   0.00000   0.00000  -0.00000
 224  O 2   d 2      0.00000  -0.00000  -0.00000  -0.00000   0.00000  -0.00000
 225  O 2   d 3      0.00000   0.00000  -0.00000  -0.00000  -0.00000  -0.00000
 226  O 2   d 4     -0.00000  -0.00000   0.00000  -0.00000   0.00000  -0.00000
 227  O 2   d 5      0.00000   0.00000  -0.00000   0.00000  -0.00000  -0.00000
 228  O 2   d 1      0.00000   0.00001   0.00000  -0.00000  -0.00000   0.00000
 229  O 2   d 2     -0.00000   0.00002   0.00000   0.00000  -0.00000   0.00000
 230  O 2   d 3     -0.00000  -0.00000   0.00000   0.00000   0.00000   0.00000
 231  O 2   d 4      0.00000   0.00001  -0.00000  -0.00000  -0.00000  -0.00000
 232  O 2   d 5     -0.00000  -0.00001   0.00000  -0.00000   0.00000   0.00000
 233  O 2   d 1      0.00000  -0.00021  -0.00000   0.00003  -0.00001   0.00000
 234  O 2   d 2      0.00003  -0.00014  -0.00001   0.00004  -0.00003   0.00001
 235  O 2   d 3      0.00001  -0.00012  -0.00000  -0.00001  -0.00001  -0.00000
 236  O 2   d 4      0.00002   0.00003   0.00000   0.00003  -0.00002   0.00000
 237  O 2   d 5      0.00001   0.00021   0.00000   0.00000  -0.00001  -0.00000
 238  O 2   d 1     -0.00001  -0.00001   0.00001   0.00011   0.00001   0.00000
 239  O 2   d 2      0.00001  -0.00023  -0.00002   0.00004  -0.00004   0.00000
 240  O 2   d 3      0.00002  -0.00007   0.00001   0.00002  -0.00002  -0.00000
 241  O 2   d 4      0.00003   0.00024  -0.00002   0.00004   0.00001   0.00000
 242  O 2   d 5      0.00002   0.00044  -0.00001   0.00005  -0.00003   0.00000
 243  O 2   f 1      0.00000   0.00001   0.00000  -0.00000   0.00000   0.00000
 244  O 2   f 2      0.00000   0.00000  -0.00000   0.00000  -0.00000   0.00000
 245  O 2   f 3      0.00000  -0.00000  -0.00000  -0.00000  -0.00000   0.00000
 246  O 2   f 4     -0.00000   0.00000   0.00000  -0.00000  -0.00000  -0.00000
 247  O 2   f 5      0.00000  -0.00000  -0.00000   0.00000  -0.00000   0.00000
 248  O 2   f 6     -0.00000  -0.00000  -0.00000  -0.00000   0.00000  -0.00000
 249  O 2   f 7      0.00000   0.00000  -0.00000   0.00000   0.00000  -0.00000
 250  O 2   f 1     -0.00000  -0.00005  -0.00000   0.00000  -0.00000  -0.00000
 251  O 2   f 2     -0.00000  -0.00000   0.00000  -0.00001   0.00000  -0.00000
 252  O 2   f 3     -0.00000   0.00002   0.00000   0.00000   0.00000  -0.00000
 253  O 2   f 4      0.00000  -0.00001  -0.00000   0.00000   0.00000   0.00000
 254  O 2   f 5     -0.00000  -0.00001  -0.00000  -0.00000   0.00000  -0.00000
 255  O 2   f 6      0.00000   0.00001   0.00000   0.00001  -0.00000   0.00000
 256  O 2   f 7      0.00000  -0.00001   0.00000   0.00000  -0.00001   0.00000
 257  O 2   f 1     -0.00001  -0.00007   0.00000  -0.00001   0.00001  -0.00000
 258  O 2   f 2     -0.00001  -0.00007  -0.00000  -0.00001  -0.00001  -0.00000
 259  O 2   f 3     -0.00001  -0.00000   0.00000  -0.00001   0.00001   0.00000
 260  O 2   f 4     -0.00001  -0.00006  -0.00000   0.00001  -0.00000   0.00000
 261  O 2   f 5     -0.00001  -0.00000   0.00000   0.00001   0.00001  -0.00000
 262  O 2   f 6     -0.00000   0.00001  -0.00001   0.00000   0.00000  -0.00000
 263  O 2   f 7      0.00000   0.00011  -0.00000   0.00005   0.00000   0.00000
 264  O 2   g 1     -0.00000   0.00000  -0.00000   0.00000   0.00000  -0.00000
 265  O 2   g 2     -0.00000   0.00000  -0.00000  -0.00000   0.00000  -0.00000
 266  O 2   g 3      0.00000   0.00000  -0.00000   0.00000  -0.00000   0.00000
 267  O 2   g 4     -0.00000  -0.00000  -0.00000   0.00000  -0.00000   0.00000
 268  O 2   g 5     -0.00000   0.00000  -0.00000   0.00000   0.00000  -0.00000
 269  O 2   g 6     -0.00000  -0.00000   0.00000  -0.00000   0.00000  -0.00000
 270  O 2   g 7     -0.00000  -0.00000  -0.00000  -0.00000   0.00000  -0.00000
 271  O 2   g 8     -0.00000   0.00000   0.00000  -0.00000   0.00000  -0.00000
 272  O 2   g 9      0.00000  -0.00000  -0.00000   0.00000  -0.00000   0.00000
 273  O 2   g 1     -0.00000  -0.00004   0.00000  -0.00001  -0.00000  -0.00000
 274  O 2   g 2      0.00000  -0.00004   0.00000   0.00000  -0.00000   0.00000
 275  O 2   g 3      0.00000  -0.00001  -0.00000  -0.00000  -0.00000   0.00000
 276  O 2   g 4      0.00000   0.00001   0.00000  -0.00000  -0.00000  -0.00000
 277  O 2   g 5      0.00000  -0.00000   0.00000  -0.00000  -0.00000   0.00000
 278  O 2   g 6      0.00000  -0.00000  -0.00000  -0.00000  -0.00000   0.00000
 279  O 2   g 7      0.00000  -0.00000   0.00000   0.00000   0.00000   0.00000
 280  O 2   g 8     -0.00000  -0.00001  -0.00000   0.00000  -0.00000  -0.00000
 281  O 2   g 9     -0.00000   0.00002  -0.00000   0.00000   0.00000  -0.00000
 282  O 2   h 1     -0.00000  -0.00001   0.00000  -0.00000  -0.00000   0.00000
 283  O 2   h 2     -0.00000  -0.00000   0.00000   0.00000  -0.00000   0.00000
 284  O 2   h 3     -0.00000   0.00000  -0.00000  -0.00000  -0.00000  -0.00000
 285  O 2   h 4     -0.00000   0.00000   0.00000   0.00000   0.00000  -0.00000
 286  O 2   h 5     -0.00000   0.00000  -0.00000   0.00000   0.00000  -0.00000
 287  O 2   h 6      0.00000  -0.00000  -0.00000  -0.00000  -0.00000  -0.00000
 288  O 2   h 7     -0.00000  -0.00000   0.00000  -0.00000  -0.00000   0.00000
 289  O 2   h 8      0.00000   0.00000  -0.00000  -0.00000  -0.00000  -0.00000
 290  O 2   h 9      0.00000  -0.00000   0.00000   0.00000   0.00000   0.00000
 291  O 2   h10      0.00000  -0.00001   0.00000   0.00000  -0.00000   0.00000
 292  O 2   h11     -0.00000  -0.00000   0.00000   0.00000  -0.00000  -0.00000
 293  H 3   s       -0.00000  -0.00000   0.00000  -0.00000   0.00000  -0.00000
 294  H 3   s        0.00003  -0.00007  -0.00000   0.00004  -0.00003   0.00001
 295  H 3   s       -0.00024   0.00074   0.00007  -0.00033   0.00027  -0.00006
 296  H 3   s       -0.00013   0.00118   0.00008  -0.00012  -0.00010  -0.00003
 297  H 3   s        0.00008  -0.00002   0.00001  -0.00003  -0.00002  -0.00000
 298  H 3   px       0.00000   0.00000   0.00000  -0.00000   0.00000   0.00000
 299  H 3   py       0.00000   0.00000  -0.00000  -0.00000  -0.00000   0.00000
 300  H 3   pz       0.00000   0.00000   0.00000   0.00000   0.00000   0.00000
 301  H 3   px       0.00000  -0.00002  -0.00000   0.00000  -0.00000  -0.00000
 302  H 3   py      -0.00000  -0.00001   0.00000   0.00001   0.00001  -0.00000
 303  H 3   pz       0.00000  -0.00002  -0.00000   0.00001  -0.00000   0.00000
 304  H 3   px      -0.00003   0.00013   0.00002  -0.00001   0.00004  -0.00000
 305  H 3   py      -0.00010   0.00024   0.00001  -0.00014   0.00008  -0.00002
 306  H 3   pz      -0.00007   0.00025   0.00002  -0.00014   0.00008  -0.00002
 307  H 3   px      -0.00001   0.00037  -0.00000   0.00005  -0.00002   0.00000
 308  H 3   py      -0.00012   0.00021   0.00003  -0.00010   0.00009  -0.00002
 309  H 3   pz      -0.00005   0.00046   0.00001  -0.00007  -0.00006  -0.00002
 310  H 3   d 1      0.00000  -0.00000  -0.00000  -0.00000   0.00000   0.00000
 311  H 3   d 2      0.00000  -0.00000   0.00000   0.00000  -0.00000   0.00000
 312  H 3   d 3     -0.00000  -0.00000   0.00000   0.00000  -0.00000   0.00000
 313  H 3   d 4      0.00000   0.00000  -0.00000   0.00000  -0.00000   0.00000
 314  H 3   d 5     -0.00000   0.00000   0.00000  -0.00000   0.00000  -0.00000
 315  H 3   d 1     -0.00001   0.00001   0.00000   0.00000   0.00001  -0.00000
 316  H 3   d 2     -0.00002   0.00005  -0.00000  -0.00003   0.00002  -0.00000
 317  H 3   d 3      0.00000  -0.00000  -0.00000  -0.00001   0.00000  -0.00000
 318  H 3   d 4     -0.00001  -0.00002   0.00001  -0.00002   0.00001  -0.00000
 319  H 3   d 5      0.00001  -0.00004  -0.00000   0.00001  -0.00001   0.00000
 320  H 3   d 1     -0.00002   0.00004   0.00000  -0.00001   0.00002  -0.00000
 321  H 3   d 2     -0.00004   0.00008   0.00001  -0.00008   0.00004  -0.00001
 322  H 3   d 3      0.00000   0.00005   0.00000  -0.00002  -0.00002  -0.00000
 323  H 3   d 4     -0.00001   0.00015   0.00000   0.00004  -0.00001   0.00000
 324  H 3   d 5      0.00004   0.00003   0.00001   0.00005  -0.00002   0.00000
 325  H 3   f 1      0.00000  -0.00000   0.00000   0.00000   0.00000   0.00000
 326  H 3   f 2     -0.00000  -0.00000   0.00000   0.00000   0.00000  -0.00000
 327  H 3   f 3     -0.00000   0.00000   0.00000  -0.00000   0.00000  -0.00000
 328  H 3   f 4      0.00000  -0.00000   0.00000   0.00000  -0.00000   0.00000
 329  H 3   f 5      0.00000  -0.00000   0.00000  -0.00000   0.00000  -0.00000
 330  H 3   f 6      0.00000  -0.00001  -0.00000  -0.00000  -0.00000   0.00000
 331  H 3   f 7      0.00000  -0.00000  -0.00000   0.00000  -0.00000   0.00000
 332  H 3   f 1      0.00001  -0.00000  -0.00000   0.00000  -0.00000   0.00000
 333  H 3   f 2     -0.00001   0.00000   0.00000  -0.00001   0.00000  -0.00000
 334  H 3   f 3     -0.00000   0.00001   0.00000  -0.00002   0.00000  -0.00000
 335  H 3   f 4      0.00001  -0.00001  -0.00000  -0.00000  -0.00001   0.00000
 336  H 3   f 5     -0.00000   0.00002   0.00000   0.00001  -0.00000  -0.00000
 337  H 3   f 6      0.00001  -0.00000   0.00000   0.00002  -0.00001   0.00000
 338  H 3   f 7      0.00001   0.00001   0.00000   0.00000  -0.00000   0.00000
 339  H 3   g 1      0.00000   0.00000   0.00000  -0.00000  -0.00000   0.00000
 340  H 3   g 2      0.00000  -0.00000   0.00000   0.00000  -0.00000   0.00000
 341  H 3   g 3     -0.00000  -0.00000   0.00000  -0.00000   0.00000  -0.00000
 342  H 3   g 4      0.00000  -0.00000   0.00000  -0.00000  -0.00000  -0.00000
 343  H 3   g 5      0.00000  -0.00000  -0.00000   0.00000  -0.00000   0.00000
 344  H 3   g 6      0.00000   0.00000  -0.00000   0.00000  -0.00000  -0.00000
 345  H 3   g 7      0.00000  -0.00000   0.00000   0.00000  -0.00000   0.00000
 346  H 3   g 8      0.00000   0.00000   0.00000   0.00000  -0.00000   0.00000
 347  H 3   g 9     -0.00000   0.00000  -0.00000   0.00000   0.00000  -0.00000
 348  H 4   s       -0.00000   0.00001  -0.00000  -0.00000   0.00000  -0.00000
 349  H 4   s        0.00002   0.00007   0.00001   0.00001  -0.00002   0.00000
 350  H 4   s       -0.00009  -0.00142   0.00002  -0.00007   0.00012  -0.00002
 351  H 4   s       -0.00032  -0.00104   0.00013   0.00001   0.00004  -0.00002
 352  H 4   s       -0.00000  -0.00011  -0.00009   0.00002   0.00001  -0.00000
 353  H 4   px       0.00000  -0.00001   0.00000  -0.00000  -0.00000  -0.00000
 354  H 4   py      -0.00000  -0.00001  -0.00000   0.00000  -0.00000   0.00000
 355  H 4   pz      -0.00000  -0.00000   0.00000   0.00000   0.00000  -0.00000
 356  H 4   px      -0.00001  -0.00001  -0.00000   0.00001   0.00001  -0.00000
 357  H 4   py       0.00001   0.00004   0.00001  -0.00000   0.00000  -0.00000
 358  H 4   pz      -0.00000  -0.00000  -0.00000  -0.00000   0.00000   0.00000
 359  H 4   px       0.00007   0.00081  -0.00001   0.00001  -0.00006   0.00001
 360  H 4   py      -0.00002  -0.00026  -0.00001  -0.00003   0.00000  -0.00000
 361  H 4   pz       0.00001   0.00013  -0.00000   0.00001  -0.00002   0.00000
 362  H 4   px       0.00009   0.00093   0.00004  -0.00002  -0.00003   0.00002
 363  H 4   py       0.00005  -0.00024  -0.00003  -0.00001   0.00001  -0.00001
 364  H 4   pz       0.00003  -0.00001   0.00001  -0.00003  -0.00007   0.00001
 365  H 4   d 1      0.00000   0.00002  -0.00000   0.00000   0.00000  -0.00000
 366  H 4   d 2     -0.00000   0.00000   0.00000   0.00000   0.00000  -0.00000
 367  H 4   d 3     -0.00000  -0.00000  -0.00000  -0.00000   0.00000  -0.00000
 368  H 4   d 4     -0.00000   0.00001  -0.00000  -0.00000  -0.00000  -0.00000
 369  H 4   d 5      0.00000   0.00003  -0.00000   0.00000  -0.00000   0.00000
 370  H 4   d 1     -0.00000  -0.00005   0.00001   0.00000  -0.00001   0.00000
 371  H 4   d 2      0.00000  -0.00001  -0.00000  -0.00001  -0.00001   0.00000
 372  H 4   d 3      0.00000   0.00006   0.00000   0.00001  -0.00000   0.00000
 373  H 4   d 4     -0.00000  -0.00006   0.00000   0.00000   0.00001  -0.00000
 374  H 4   d 5     -0.00001  -0.00020   0.00000  -0.00001   0.00001  -0.00000
 375  H 4   d 1      0.00002   0.00014  -0.00002   0.00006  -0.00001  -0.00000
 376  H 4   d 2      0.00000   0.00007   0.00001   0.00002   0.00001  -0.00000
 377  H 4   d 3      0.00002   0.00008  -0.00000  -0.00002  -0.00001   0.00000
 378  H 4   d 4     -0.00003  -0.00004  -0.00001  -0.00002   0.00002  -0.00000
 379  H 4   d 5     -0.00003  -0.00016  -0.00002   0.00002   0.00002  -0.00000
 380  H 4   f 1     -0.00000   0.00000  -0.00000   0.00000  -0.00000  -0.00000
 381  H 4   f 2     -0.00000   0.00000  -0.00000  -0.00000   0.00000  -0.00000
 382  H 4   f 3      0.00000   0.00001   0.00000  -0.00000  -0.00000   0.00000
 383  H 4   f 4      0.00000   0.00000   0.00000  -0.00000   0.00000   0.00000
 384  H 4   f 5     -0.00000  -0.00001   0.00000  -0.00000   0.00000  -0.00000
 385  H 4   f 6     -0.00000   0.00001  -0.00000   0.00000  -0.00000   0.00000
 386  H 4   f 7     -0.00000  -0.00001   0.00000  -0.00000  -0.00000   0.00000
 387  H 4   f 1      0.00000  -0.00003  -0.00000  -0.00001   0.00001  -0.00000
 388  H 4   f 2      0.00000  -0.00003   0.00000   0.00000  -0.00000   0.00000
 389  H 4   f 3     -0.00000  -0.00002  -0.00000   0.00001  -0.00000  -0.00000
 390  H 4   f 4     -0.00000  -0.00003  -0.00000   0.00001   0.00000  -0.00000
 391  H 4   f 5     -0.00000  -0.00003  -0.00000   0.00001   0.00000  -0.00000
 392  H 4   f 6      0.00001   0.00002   0.00000  -0.00000  -0.00001   0.00000
 393  H 4   f 7      0.00001   0.00016  -0.00000   0.00001  -0.00000   0.00000
 394  H 4   g 1      0.00000  -0.00000   0.00000   0.00000  -0.00000   0.00000
 395  H 4   g 2     -0.00000   0.00000   0.00000   0.00000   0.00000  -0.00000
 396  H 4   g 3     -0.00000   0.00001   0.00000  -0.00000   0.00000  -0.00000
 397  H 4   g 4      0.00000   0.00000  -0.00000   0.00000   0.00000   0.00000
 398  H 4   g 5     -0.00000   0.00000  -0.00000   0.00000   0.00000  -0.00000
 399  H 4   g 6      0.00000   0.00000   0.00000  -0.00000  -0.00000   0.00000
 400  H 4   g 7      0.00000   0.00000   0.00000  -0.00000   0.00000   0.00000
 401  H 4   g 8     -0.00000  -0.00001   0.00000  -0.00000   0.00000  -0.00000
 402  H 4   g 9     -0.00000  -0.00002  -0.00000  -0.00000  -0.00000  -0.00000
 403  O 3   s       -0.00002   0.00000   0.00000   0.00001   0.00000   0.97868
 404  O 3   s       -0.00004   0.00000   0.00000   0.00002  -0.00000   0.03123
 405  O 3   s       -0.00010  -0.00000   0.00000   0.00004  -0.00000   0.08552
 406  O 3   s        0.00035   0.00002  -0.00002  -0.00016   0.00002  -0.01619
 407  O 3   s        0.00051  -0.00015   0.00001  -0.00015  -0.00004  -0.02168
 408  O 3   s        0.00059  -0.00033   0.00013   0.00028  -0.00017  -0.00310
 409  O 3   px      -0.00002  -0.00000   0.00000   0.00000  -0.00000   0.00103
 410  O 3   py       0.00000  -0.00000   0.00000   0.00000  -0.00000  -0.00048
 411  O 3   pz      -0.00000  -0.00000  -0.00000   0.00000   0.00000  -0.00030
 412  O 3   px       0.00011   0.00000  -0.00000  -0.00001   0.00000   0.00079
 413  O 3   py      -0.00001   0.00000  -0.00000  -0.00001   0.00000  -0.00003
 414  O 3   pz       0.00003   0.00000  -0.00000  -0.00001   0.00000  -0.00015
 415  O 3   px       0.00004  -0.00002  -0.00000  -0.00015  -0.00000  -0.01062
 416  O 3   py       0.00033  -0.00001   0.00001  -0.00011  -0.00001   0.00075
 417  O 3   pz      -0.00015  -0.00000   0.00001   0.00002  -0.00001   0.00200
 418  O 3   px       0.00038  -0.00010   0.00003   0.00002  -0.00002  -0.00234
 419  O 3   py      -0.00032  -0.00000   0.00006   0.00044  -0.00006  -0.00087
 420  O 3   pz      -0.00021  -0.00001   0.00006   0.00010  -0.00008   0.00030
 421  O 3   px       0.00004  -0.00003   0.00001   0.00004  -0.00001  -0.00003
 422  O 3   py      -0.00009   0.00002  -0.00000   0.00007   0.00001   0.00029
 423  O 3   pz      -0.00003   0.00001  -0.00000   0.00002   0.00001   0.00006
 424  O 3   d 1     -0.00000  -0.00000   0.00000   0.00000  -0.00000   0.00012
 425  O 3   d 2     -0.00000  -0.00000   0.00000  -0.00000  -0.00000   0.00012
 426  O 3   d 3     -0.00000   0.00000  -0.00000  -0.00000   0.00000  -0.00023
 427  O 3   d 4      0.00000  -0.00000   0.00000   0.00000  -0.00000  -0.00003
 428  O 3   d 5     -0.00000   0.00000  -0.00000  -0.00000   0.00000  -0.00005
 429  O 3   d 1      0.00002   0.00000  -0.00000  -0.00002   0.00000  -0.00020
 430  O 3   d 2      0.00000   0.00000  -0.00000   0.00000   0.00000  -0.00020
 431  O 3   d 3     -0.00001  -0.00000   0.00000   0.00001  -0.00000   0.00041
 432  O 3   d 4      0.00000   0.00000  -0.00000  -0.00000   0.00000   0.00006
 433  O 3   d 5      0.00003  -0.00000   0.00000   0.00000  -0.00000   0.00002
 434  O 3   d 1      0.00015  -0.00001   0.00000   0.00001  -0.00000  -0.00256
 435  O 3   d 2     -0.00005  -0.00001   0.00001   0.00002  -0.00001  -0.00139
 436  O 3   d 3     -0.00008   0.00001  -0.00000  -0.00001   0.00000   0.00294
 437  O 3   d 4     -0.00010  -0.00001   0.00001   0.00003  -0.00001   0.00007
 438  O 3   d 5     -0.00026   0.00001  -0.00000  -0.00007   0.00001   0.00064
 439  O 3   d 1     -0.00003  -0.00003   0.00003   0.00026  -0.00005  -0.00022
 440  O 3   d 2      0.00001  -0.00003   0.00002   0.00001  -0.00003   0.00021
 441  O 3   d 3     -0.00010   0.00003  -0.00002  -0.00005   0.00003  -0.00018
 442  O 3   d 4     -0.00006  -0.00002   0.00003   0.00006  -0.00004  -0.00008
 443  O 3   d 5      0.00008   0.00003  -0.00002  -0.00012   0.00005   0.00010
 444  O 3   f 1      0.00001   0.00000  -0.00000  -0.00000  -0.00000   0.00017
 445  O 3   f 2      0.00001   0.00000  -0.00000  -0.00000   0.00000   0.00002
 446  O 3   f 3      0.00000   0.00000  -0.00000   0.00000   0.00000  -0.00001
 447  O 3   f 4     -0.00000  -0.00000   0.00000  -0.00000  -0.00000   0.00003
 448  O 3   f 5     -0.00001   0.00000  -0.00000   0.00000   0.00000  -0.00007
 449  O 3   f 6      0.00000   0.00000   0.00000  -0.00000  -0.00000   0.00005
 450  O 3   f 7      0.00002  -0.00000   0.00000   0.00000   0.00000  -0.00004
 451  O 3   f 1     -0.00001  -0.00000  -0.00000  -0.00000   0.00000  -0.00142
 452  O 3   f 2     -0.00003  -0.00000   0.00000   0.00001  -0.00000  -0.00019
 453  O 3   f 3     -0.00002   0.00000   0.00000  -0.00000  -0.00000   0.00008
 454  O 3   f 4      0.00002   0.00000  -0.00000  -0.00000   0.00000  -0.00030
 455  O 3   f 5      0.00002   0.00000   0.00000  -0.00001  -0.00000   0.00063
 456  O 3   f 6     -0.00001  -0.00000  -0.00000   0.00001  -0.00000  -0.00044
 457  O 3   f 7     -0.00010   0.00000  -0.00000  -0.00001   0.00000   0.00034
 458  O 3   f 1      0.00001  -0.00001   0.00001   0.00006  -0.00001   0.00031
 459  O 3   f 2     -0.00004  -0.00001   0.00001   0.00001  -0.00002   0.00008
 460  O 3   f 3     -0.00004   0.00000  -0.00000  -0.00005   0.00000   0.00005
 461  O 3   f 4      0.00004   0.00000  -0.00001  -0.00002   0.00002   0.00014
 462  O 3   f 5     -0.00005   0.00001  -0.00001  -0.00001   0.00000  -0.00014
 463  O 3   f 6      0.00002  -0.00001   0.00000   0.00002  -0.00001   0.00014
 464  O 3   f 7     -0.00005   0.00002  -0.00002  -0.00009   0.00003  -0.00005
 465  O 3   g 1     -0.00001   0.00000  -0.00000  -0.00000   0.00000  -0.00013
 466  O 3   g 2     -0.00000   0.00000  -0.00000   0.00000   0.00000   0.00005
 467  O 3   g 3      0.00000   0.00000   0.00000   0.00000  -0.00000   0.00006
 468  O 3   g 4     -0.00000  -0.00000   0.00000  -0.00000  -0.00000   0.00006
 469  O 3   g 5     -0.00000   0.00000  -0.00000  -0.00000   0.00000  -0.00006
 470  O 3   g 6      0.00000  -0.00000   0.00000   0.00000  -0.00000  -0.00001
 471  O 3   g 7      0.00001   0.00000   0.00000  -0.00000   0.00000   0.00002
 472  O 3   g 8     -0.00000   0.00000   0.00000  -0.00000  -0.00000  -0.00004
 473  O 3   g 9     -0.00000  -0.00000   0.00000   0.00000  -0.00000   0.00001
 474  O 3   g 1     -0.00002  -0.00000   0.00000   0.00001  -0.00000  -0.00001
 475  O 3   g 2     -0.00002  -0.00000   0.00000   0.00000  -0.00000   0.00001
 476  O 3   g 3     -0.00001   0.00000  -0.00000  -0.00002  -0.00000   0.00006
 477  O 3   g 4      0.00002   0.00000  -0.00000  -0.00000   0.00000   0.00006
 478  O 3   g 5      0.00001  -0.00000   0.00000   0.00001  -0.00000  -0.00006
 479  O 3   g 6      0.00001   0.00000  -0.00000  -0.00000   0.00000   0.00003
 480  O 3   g 7     -0.00000  -0.00000   0.00000   0.00000  -0.00000  -0.00000
 481  O 3   g 8      0.00002  -0.00000  -0.00000   0.00001   0.00000   0.00005
 482  O 3   g 9     -0.00002   0.00000  -0.00000  -0.00002   0.00000   0.00002
 483  O 3   h 1     -0.00001  -0.00000   0.00000  -0.00000  -0.00000   0.00001
 484  O 3   h 2     -0.00000  -0.00000   0.00000   0.00000  -0.00000   0.00002
 485  O 3   h 3      0.00000   0.00000  -0.00000  -0.00000   0.00000   0.00006
 486  O 3   h 4      0.00000   0.00000  -0.00000  -0.00000   0.00000   0.00002
 487  O 3   h 5      0.00000  -0.00000  -0.00000   0.00000   0.00000  -0.00003
 488  O 3   h 6     -0.00000  -0.00000   0.00000   0.00000  -0.00000   0.00002
 489  O 3   h 7     -0.00000  -0.00000   0.00000   0.00000   0.00000  -0.00004
 490  O 3   h 8      0.00000   0.00000  -0.00000  -0.00000   0.00000   0.00004
 491  O 3   h 9      0.00000  -0.00000   0.00000   0.00000  -0.00000  -0.00001
 492  O 3   h10      0.00000  -0.00000  -0.00000   0.00000   0.00000   0.00004
 493  O 3   h11      0.00000   0.00000  -0.00000  -0.00000   0.00000   0.00004
 494  H 5   s        0.00001  -0.00000   0.00000   0.00000  -0.00000  -0.00033
 495  H 5   s        0.00014   0.00000  -0.00001  -0.00012   0.00001  -0.00132
 496  H 5   s       -0.00093   0.00012  -0.00004  -0.00002   0.00004   0.01700
 497  H 5   s       -0.00074   0.00015  -0.00012  -0.00009   0.00014   0.00376
 498  H 5   s       -0.00010   0.00004  -0.00002  -0.00006   0.00002  -0.00055
 499  H 5   px       0.00002   0.00000   0.00000  -0.00001  -0.00000   0.00025
 500  H 5   py       0.00002  -0.00000   0.00000  -0.00001  -0.00000   0.00015
 501  H 5   pz       0.00000  -0.00000   0.00000  -0.00000  -0.00000   0.00000
 502  H 5   px      -0.00010  -0.00000   0.00000   0.00006  -0.00000  -0.00072
 503  H 5   py      -0.00007  -0.00000   0.00000   0.00006  -0.00000  -0.00045
 504  H 5   pz      -0.00001   0.00000  -0.00000   0.00001   0.00000  -0.00001
 505  H 5   px       0.00052  -0.00006   0.00002  -0.00010  -0.00004  -0.01061
 506  H 5   py       0.00009  -0.00001  -0.00001  -0.00030   0.00002  -0.00601
 507  H 5   pz       0.00017   0.00002  -0.00003  -0.00008   0.00004   0.00014
 508  H 5   px      -0.00077  -0.00003  -0.00003   0.00011   0.00002  -0.00229
 509  H 5   py       0.00006   0.00002  -0.00007  -0.00027   0.00010  -0.00135
 510  H 5   pz       0.00011   0.00003  -0.00007  -0.00005   0.00009   0.00000
 511  H 5   d 1      0.00003   0.00000  -0.00000  -0.00001   0.00000  -0.00007
 512  H 5   d 2      0.00001   0.00000  -0.00000  -0.00000   0.00000   0.00000
 513  H 5   d 3     -0.00002  -0.00000   0.00000   0.00000  -0.00000   0.00003
 514  H 5   d 4      0.00001  -0.00000  -0.00000  -0.00000   0.00000   0.00001
 515  H 5   d 5      0.00005  -0.00000  -0.00000  -0.00001   0.00000   0.00001
 516  H 5   d 1     -0.00008   0.00000   0.00000   0.00006  -0.00001   0.00253
 517  H 5   d 2     -0.00004  -0.00001   0.00001   0.00001  -0.00001  -0.00001
 518  H 5   d 3      0.00012   0.00000  -0.00001  -0.00002   0.00001  -0.00165
 519  H 5   d 4     -0.00009  -0.00000   0.00001   0.00001  -0.00001  -0.00012
 520  H 5   d 5     -0.00030   0.00001   0.00000   0.00001  -0.00001   0.00124
 521  H 5   d 1      0.00007  -0.00001   0.00002   0.00014  -0.00001   0.00334
 522  H 5   d 2     -0.00001  -0.00001   0.00001   0.00004  -0.00002  -0.00002
 523  H 5   d 3      0.00011  -0.00001   0.00001  -0.00007  -0.00001  -0.00251
 524  H 5   d 4     -0.00004  -0.00002   0.00002   0.00005  -0.00004   0.00005
 525  H 5   d 5     -0.00009   0.00003  -0.00004  -0.00014   0.00007   0.00277
 526  H 5   f 1     -0.00002  -0.00000  -0.00000   0.00000  -0.00000  -0.00027
 527  H 5   f 2      0.00000   0.00000  -0.00000   0.00000   0.00000   0.00001
 528  H 5   f 3      0.00001   0.00000   0.00000  -0.00000   0.00000   0.00011
 529  H 5   f 4     -0.00000  -0.00000   0.00000   0.00000   0.00000  -0.00000
 530  H 5   f 5      0.00002   0.00000  -0.00000   0.00000   0.00000   0.00020
 531  H 5   f 6     -0.00001   0.00000   0.00000  -0.00000   0.00000   0.00001
 532  H 5   f 7     -0.00001  -0.00000  -0.00000   0.00000  -0.00000  -0.00002
 533  H 5   f 1      0.00015  -0.00000  -0.00000  -0.00005   0.00000  -0.00135
 534  H 5   f 2      0.00003   0.00000  -0.00000  -0.00002   0.00001  -0.00000
 535  H 5   f 3     -0.00004  -0.00000   0.00000   0.00003  -0.00000   0.00052
 536  H 5   f 4     -0.00006  -0.00000   0.00001   0.00001  -0.00001  -0.00007
 537  H 5   f 5     -0.00014  -0.00000   0.00000   0.00002  -0.00001   0.00087
 538  H 5   f 6      0.00008   0.00000  -0.00000   0.00000   0.00000   0.00006
 539  H 5   f 7      0.00018  -0.00001   0.00001   0.00003  -0.00000   0.00011
 540  H 5   g 1     -0.00002   0.00000  -0.00000   0.00000   0.00000   0.00009
 541  H 5   g 2     -0.00001  -0.00000   0.00000   0.00000  -0.00000  -0.00000
 542  H 5   g 3      0.00000   0.00000  -0.00000  -0.00000   0.00000  -0.00007
 543  H 5   g 4      0.00000   0.00000  -0.00000  -0.00000   0.00000   0.00001
 544  H 5   g 5     -0.00001  -0.00000   0.00000   0.00000  -0.00000   0.00006
 545  H 5   g 6      0.00001   0.00000  -0.00000  -0.00000   0.00000   0.00001
 546  H 5   g 7      0.00001  -0.00000  -0.00000   0.00000  -0.00000  -0.00004
 547  H 5   g 8     -0.00000   0.00000   0.00000  -0.00000  -0.00000  -0.00001
 548  H 5   g 9     -0.00001   0.00000  -0.00000  -0.00001   0.00000  -0.00005
 549  H 6   s       -0.00000  -0.00000  -0.00000   0.00000   0.00000  -0.00020
 550  H 6   s        0.00005  -0.00000  -0.00000  -0.00001   0.00000  -0.00146
 551  H 6   s       -0.00049   0.00009  -0.00000   0.00004   0.00003   0.00963
 552  H 6   s       -0.00038   0.00017  -0.00006   0.00000   0.00011   0.00166
 553  H 6   s        0.00002  -0.00002   0.00000   0.00003  -0.00001   0.00037
 554  H 6   px       0.00000  -0.00000   0.00000   0.00000  -0.00000   0.00005
 555  H 6   py      -0.00000   0.00000   0.00000   0.00000  -0.00000  -0.00019
 556  H 6   pz      -0.00000   0.00000  -0.00000   0.00000   0.00000  -0.00006
 557  H 6   px      -0.00000   0.00000  -0.00000  -0.00000   0.00000  -0.00001
 558  H 6   py       0.00003  -0.00000  -0.00000  -0.00001   0.00000   0.00009
 559  H 6   pz       0.00000  -0.00000   0.00000  -0.00001  -0.00000   0.00003
 560  H 6   px      -0.00001   0.00000  -0.00001   0.00001   0.00000  -0.00170
 561  H 6   py      -0.00025   0.00004   0.00000  -0.00002   0.00001   0.00714
 562  H 6   pz      -0.00004   0.00002  -0.00001   0.00000   0.00002   0.00239
 563  H 6   px       0.00006  -0.00001   0.00000   0.00004  -0.00000  -0.00051
 564  H 6   py      -0.00020   0.00007  -0.00002  -0.00000   0.00005   0.00210
 565  H 6   pz      -0.00007   0.00002  -0.00001  -0.00002   0.00002   0.00072
 566  H 6   d 1      0.00000  -0.00000   0.00000  -0.00000  -0.00000   0.00007
 567  H 6   d 2      0.00000   0.00000   0.00000  -0.00000   0.00000  -0.00009
 568  H 6   d 3     -0.00000  -0.00000   0.00000   0.00000  -0.00000   0.00007
 569  H 6   d 4     -0.00000  -0.00000   0.00000  -0.00000  -0.00000   0.00002
 570  H 6   d 5      0.00000   0.00000  -0.00000  -0.00000   0.00000   0.00012
 571  H 6   d 1     -0.00001   0.00000  -0.00000  -0.00000   0.00000  -0.00090
 572  H 6   d 2     -0.00000   0.00000  -0.00000  -0.00000   0.00000   0.00123
 573  H 6   d 3      0.00002   0.00000  -0.00000  -0.00000   0.00001  -0.00092
 574  H 6   d 4      0.00000   0.00000  -0.00000   0.00000   0.00000  -0.00030
 575  H 6   d 5      0.00001  -0.00001   0.00000   0.00002  -0.00000  -0.00170
 576  H 6   d 1      0.00004   0.00000  -0.00001   0.00001   0.00001  -0.00098
 577  H 6   d 2     -0.00004   0.00001  -0.00000  -0.00002   0.00001   0.00143
 578  H 6   d 3      0.00001  -0.00001   0.00000   0.00001  -0.00000  -0.00102
 579  H 6   d 4     -0.00001   0.00000  -0.00000  -0.00000  -0.00000  -0.00033
 580  H 6   d 5      0.00011  -0.00002   0.00000   0.00002  -0.00000  -0.00204
 581  H 6   f 1      0.00000  -0.00000   0.00000  -0.00000   0.00000  -0.00016
 582  H 6   f 2     -0.00000   0.00000  -0.00000   0.00000  -0.00000  -0.00008
 583  H 6   f 3      0.00000  -0.00000  -0.00000  -0.00000   0.00000  -0.00009
 584  H 6   f 4      0.00000  -0.00000   0.00000  -0.00000  -0.00000  -0.00012
 585  H 6   f 5      0.00000   0.00000  -0.00000  -0.00000   0.00000   0.00002
 586  H 6   f 6     -0.00000  -0.00000  -0.00000  -0.00000  -0.00000  -0.00015
 587  H 6   f 7     -0.00000  -0.00000   0.00000   0.00000  -0.00000   0.00014
 588  H 6   f 1      0.00003  -0.00000   0.00000   0.00001  -0.00000  -0.00068
 589  H 6   f 2      0.00000   0.00000  -0.00000  -0.00000   0.00000  -0.00035
 590  H 6   f 3     -0.00000  -0.00000  -0.00000   0.00000   0.00000  -0.00043
 591  H 6   f 4      0.00000  -0.00000  -0.00000   0.00000  -0.00000  -0.00057
 592  H 6   f 5     -0.00001  -0.00000   0.00000   0.00000  -0.00000   0.00012
 593  H 6   f 6      0.00001  -0.00000   0.00000   0.00001  -0.00000  -0.00066
 594  H 6   f 7     -0.00001  -0.00000   0.00000  -0.00000  -0.00000   0.00058
 595  H 6   g 1     -0.00000  -0.00000   0.00000   0.00000  -0.00000   0.00010
 596  H 6   g 2      0.00000  -0.00000   0.00000  -0.00000  -0.00000  -0.00008
 597  H 6   g 3      0.00000  -0.00000   0.00000   0.00000  -0.00000   0.00002
 598  H 6   g 4     -0.00000  -0.00000   0.00000   0.00000  -0.00000  -0.00011
 599  H 6   g 5      0.00000  -0.00000   0.00000   0.00000  -0.00000   0.00001
 600  H 6   g 6      0.00000  -0.00000   0.00000  -0.00000  -0.00000   0.00003
 601  H 6   g 7     -0.00000  -0.00000   0.00000   0.00000  -0.00000   0.00003
 602  H 6   g 8      0.00000  -0.00000   0.00000   0.00000  -0.00000   0.00008
 603  H 6   g 9     -0.00001   0.00000   0.00000  -0.00000  -0.00000   0.00007
 604  O 4   s       -0.00001  -0.00000  -0.00000   0.00002   0.00001  -0.00000
 605  O 4   s       -0.00001  -0.00000  -0.00000   0.00004   0.00001   0.00000
 606  O 4   s       -0.00001  -0.00000  -0.00000   0.00004   0.00001   0.00000
 607  O 4   s       -0.00004   0.00002  -0.00001  -0.00009   0.00001   0.00003
 608  O 4   s        0.00043  -0.00010   0.00009   0.00036  -0.00025  -0.00022
 609  O 4   s        0.00062  -0.00006   0.00023   0.00035  -0.00009  -0.00018
 610  O 4   px       0.00000   0.00000   0.00000   0.00000  -0.00000   0.00000
 611  O 4   py       0.00000   0.00000   0.00000   0.00000  -0.00000  -0.00000
 612  O 4   pz       0.00000  -0.00000   0.00000  -0.00000  -0.00000  -0.00000
 613  O 4   px       0.00000   0.00000  -0.00001   0.00001   0.00001  -0.00001
 614  O 4   py      -0.00001  -0.00000   0.00000  -0.00002   0.00000   0.00001
 615  O 4   pz      -0.00001   0.00000  -0.00000   0.00001   0.00002   0.00000
 616  O 4   px      -0.00002   0.00000   0.00004  -0.00018  -0.00005   0.00009
 617  O 4   py       0.00006   0.00000  -0.00001   0.00017  -0.00000  -0.00010
 618  O 4   pz       0.00007  -0.00001   0.00002  -0.00006  -0.00008  -0.00001
 619  O 4   px      -0.00014  -0.00005  -0.00002   0.00031   0.00008   0.00014
 620  O 4   py       0.00021   0.00007   0.00002  -0.00019  -0.00013  -0.00024
 621  O 4   pz       0.00020  -0.00007   0.00006   0.00016  -0.00002  -0.00003
 622  O 4   px      -0.00008  -0.00002  -0.00001   0.00008   0.00004   0.00005
 623  O 4   py       0.00010   0.00005   0.00004  -0.00006  -0.00002  -0.00005
 624  O 4   pz       0.00007   0.00001   0.00003   0.00004   0.00001  -0.00003
 625  O 4   d 1     -0.00000   0.00000  -0.00000   0.00000   0.00000   0.00000
 626  O 4   d 2     -0.00000   0.00000  -0.00000   0.00000  -0.00000   0.00000
 627  O 4   d 3      0.00000  -0.00000   0.00000  -0.00000   0.00000   0.00000
 628  O 4   d 4      0.00000  -0.00000   0.00000   0.00000   0.00000  -0.00000
 629  O 4   d 5     -0.00000   0.00000  -0.00000   0.00001   0.00000  -0.00000
 630  O 4   d 1      0.00000  -0.00000   0.00000  -0.00000  -0.00000  -0.00000
 631  O 4   d 2      0.00000  -0.00000   0.00000  -0.00000   0.00000   0.00000
 632  O 4   d 3     -0.00000   0.00000  -0.00000  -0.00000  -0.00000  -0.00000
 633  O 4   d 4     -0.00000   0.00000  -0.00000  -0.00000   0.00000  -0.00000
 634  O 4   d 5      0.00000  -0.00000  -0.00000  -0.00002  -0.00000  -0.00000
 635  O 4   d 1     -0.00004   0.00001  -0.00001  -0.00000   0.00003   0.00003
 636  O 4   d 2      0.00001   0.00001  -0.00001   0.00008   0.00000  -0.00004
 637  O 4   d 3      0.00000  -0.00001  -0.00000  -0.00002   0.00000   0.00003
 638  O 4   d 4      0.00000  -0.00001   0.00002  -0.00008  -0.00002   0.00003
 639  O 4   d 5     -0.00002   0.00001   0.00001   0.00002  -0.00000   0.00003
 640  O 4   d 1     -0.00007   0.00000  -0.00005   0.00011   0.00005   0.00003
 641  O 4   d 2      0.00003   0.00006  -0.00001  -0.00000  -0.00002  -0.00005
 642  O 4   d 3      0.00001  -0.00003  -0.00002   0.00003   0.00004   0.00001
 643  O 4   d 4     -0.00003  -0.00002   0.00001   0.00001   0.00002   0.00002
 644  O 4   d 5     -0.00006   0.00001  -0.00001   0.00003   0.00003   0.00003
 645  O 4   f 1      0.00000  -0.00000  -0.00000   0.00000   0.00000  -0.00000
 646  O 4   f 2      0.00000  -0.00000  -0.00000   0.00000   0.00000  -0.00000
 647  O 4   f 3      0.00000  -0.00000   0.00000  -0.00000  -0.00000  -0.00000
 648  O 4   f 4      0.00000  -0.00000   0.00000  -0.00000   0.00000  -0.00000
 649  O 4   f 5     -0.00000   0.00000   0.00000   0.00000   0.00000  -0.00000
 650  O 4   f 6     -0.00000   0.00000  -0.00000  -0.00000   0.00000  -0.00000
 651  O 4   f 7     -0.00000   0.00000   0.00000  -0.00000   0.00000   0.00000
 652  O 4   f 1     -0.00000   0.00000   0.00000   0.00000  -0.00000  -0.00000
 653  O 4   f 2     -0.00001   0.00000   0.00000  -0.00001   0.00000   0.00000
 654  O 4   f 3     -0.00000   0.00000  -0.00000   0.00001   0.00000   0.00000
 655  O 4   f 4     -0.00000   0.00000  -0.00000   0.00000  -0.00000   0.00000
 656  O 4   f 5      0.00000  -0.00000  -0.00000  -0.00001  -0.00000   0.00000
 657  O 4   f 6      0.00000  -0.00000   0.00000  -0.00001  -0.00000   0.00001
 658  O 4   f 7      0.00000  -0.00000  -0.00000   0.00001  -0.00000  -0.00001
 659  O 4   f 1     -0.00001   0.00000  -0.00001   0.00002   0.00000   0.00000
 660  O 4   f 2     -0.00002   0.00001  -0.00002   0.00004   0.00001   0.00000
 661  O 4   f 3     -0.00001   0.00002  -0.00001   0.00005   0.00001   0.00001
 662  O 4   f 4      0.00000  -0.00001  -0.00001   0.00001   0.00001   0.00001
 663  O 4   f 5      0.00001  -0.00001   0.00001  -0.00006  -0.00001  -0.00001
 664  O 4   f 6     -0.00002   0.00000   0.00000  -0.00002   0.00001   0.00000
 665  O 4   f 7      0.00000   0.00001   0.00000  -0.00005  -0.00001  -0.00002
 666  O 4   g 1      0.00000   0.00000  -0.00000   0.00000   0.00000  -0.00000
 667  O 4   g 2      0.00000   0.00000   0.00000  -0.00000   0.00000  -0.00000
 668  O 4   g 3     -0.00000  -0.00000   0.00000   0.00000   0.00000   0.00000
 669  O 4   g 4     -0.00000  -0.00000   0.00000  -0.00000  -0.00000   0.00000
 670  O 4   g 5     -0.00000   0.00000   0.00000  -0.00000   0.00000   0.00000
 671  O 4   g 6     -0.00000   0.00000   0.00000   0.00000  -0.00000   0.00000
 672  O 4   g 7      0.00000  -0.00000   0.00000   0.00000  -0.00000   0.00000
 673  O 4   g 8      0.00000  -0.00000   0.00000   0.00000  -0.00000  -0.00000
[...]
1258  O 7   f 4      0.00107  -0.00018  -0.00206
1259  O 7   f 5     -0.00013   0.00018  -0.00033
1260  O 7   f 6      0.00280   0.00022  -0.00200
1261  O 7   f 7      0.00045  -0.00010  -0.00036
1262  O 7   f 1     -0.00003   0.00888   0.01178
1263  O 7   f 2      0.00693   0.00564  -0.00924
1264  O 7   f 3      0.00701  -0.00333   0.00232
1265  O 7   f 4      0.00504  -0.00323  -0.01586
1266  O 7   f 5     -0.00623  -0.00355  -0.00902
1267  O 7   f 6      0.00770   0.00171  -0.00602
1268  O 7   f 7     -0.00098   0.00286   0.00412
1269  O 7   g 1     -0.00005  -0.00001   0.00004
1270  O 7   g 2     -0.00007  -0.00005   0.00009
1271  O 7   g 3     -0.00011  -0.00001  -0.00001
1272  O 7   g 4      0.00016  -0.00005  -0.00040
1273  O 7   g 5      0.00008   0.00010  -0.00006
1274  O 7   g 6     -0.00008   0.00002   0.00013
1275  O 7   g 7      0.00018   0.00006  -0.00018
1276  O 7   g 8      0.00003  -0.00005  -0.00005
1277  O 7   g 9     -0.00006   0.00001  -0.00008
1278  O 7   g 1      0.00019  -0.00004   0.00004
1279  O 7   g 2     -0.00077   0.00008   0.00031
1280  O 7   g 3      0.00109   0.00093   0.00197
1281  O 7   g 4     -0.00056   0.00095   0.00390
1282  O 7   g 5      0.00001  -0.00018   0.00074
1283  O 7   g 6      0.00054  -0.00031  -0.00096
1284  O 7   g 7     -0.00021  -0.00021   0.00012
1285  O 7   g 8      0.00185   0.00073  -0.00151
1286  O 7   g 9     -0.00002   0.00031   0.00190
1287  O 7   h 1      0.00003  -0.00008  -0.00014
1288  O 7   h 2     -0.00027  -0.00011   0.00016
1289  O 7   h 3      0.00003   0.00014   0.00030
1290  O 7   h 4      0.00005   0.00004   0.00005
1291  O 7   h 5      0.00001  -0.00001   0.00007
1292  O 7   h 6      0.00013   0.00004  -0.00004
1293  O 7   h 7     -0.00008   0.00006   0.00020
1294  O 7   h 8      0.00014   0.00009   0.00025
1295  O 7   h 9      0.00002   0.00013   0.00029
1296  O 7   h10      0.00001   0.00001   0.00002
1297  O 7   h11     -0.00000   0.00005   0.00010
1298  H 13  s       -0.00223   0.00025   0.00811
1299  H 13  s        0.00227  -0.00092   0.00646
1300  H 13  s       -0.06133  -0.06598   0.16751
1301  H 13  s        0.13002  -0.30922  -0.04909
1302  H 13  s       -0.71920   0.22054   1.42389
1303  H 13  px      -0.00030   0.00035   0.00114
1304  H 13  py       0.00085  -0.00036  -0.00144
1305  H 13  pz       0.00101  -0.00062  -0.00192
1306  H 13  px      -0.00109  -0.00180  -0.00219
1307  H 13  py      -0.00130   0.00119   0.00047
1308  H 13  pz      -0.00076   0.00186   0.00141
1309  H 13  px       0.00401   0.02131   0.01613
1310  H 13  py       0.01581  -0.01301   0.00209
1311  H 13  pz      -0.00494  -0.02600   0.01537
1312  H 13  px      -0.02953   0.02291   0.03142
1313  H 13  py       0.00744  -0.05407   0.05735
1314  H 13  pz       0.01440  -0.05580  -0.00960
1315  H 13  d 1     -0.00018  -0.00004  -0.00015
1316  H 13  d 2      0.00017  -0.00023  -0.00065
1317  H 13  d 3      0.00045  -0.00008  -0.00072
1318  H 13  d 4     -0.00046  -0.00016   0.00016
1319  H 13  d 5      0.00032   0.00039   0.00006
1320  H 13  d 1      0.00070   0.00052   0.00063
1321  H 13  d 2     -0.00117   0.00057   0.00558
1322  H 13  d 3     -0.00407  -0.00027   0.00775
1323  H 13  d 4      0.00325   0.00145  -0.00294
1324  H 13  d 5     -0.00201  -0.00194   0.00004
1325  H 13  d 1     -0.00326   0.00518   0.00136
1326  H 13  d 2     -0.00020  -0.00657   0.01704
1327  H 13  d 3     -0.00577  -0.00049   0.00575
1328  H 13  d 4      0.00083   0.00739   0.00760
1329  H 13  d 5     -0.00304   0.00551  -0.01197
1330  H 13  f 1     -0.00010  -0.00016  -0.00002
1331  H 13  f 2      0.00008   0.00007  -0.00018
1332  H 13  f 3      0.00000  -0.00008   0.00033
1333  H 13  f 4     -0.00013  -0.00007   0.00043
1334  H 13  f 5      0.00023   0.00000  -0.00049
1335  H 13  f 6     -0.00006  -0.00001   0.00013
1336  H 13  f 7      0.00001   0.00013   0.00017
1337  H 13  f 1     -0.00056   0.00038  -0.00120
1338  H 13  f 2      0.00092   0.00028  -0.00073
1339  H 13  f 3     -0.00274   0.00077   0.00571
1340  H 13  f 4     -0.00154   0.00098   0.00116
1341  H 13  f 5      0.00176   0.00057  -0.00089
1342  H 13  f 6     -0.00122  -0.00041  -0.00353
1343  H 13  f 7      0.00048  -0.00103  -0.00083
1344  H 13  g 1      0.00005  -0.00001   0.00009
1345  H 13  g 2     -0.00013   0.00001  -0.00014
1346  H 13  g 3      0.00018  -0.00003  -0.00026
1347  H 13  g 4     -0.00025   0.00007   0.00044
1348  H 13  g 5     -0.00002   0.00005  -0.00002
1349  H 13  g 6      0.00017  -0.00002  -0.00022
1350  H 13  g 7     -0.00007  -0.00006  -0.00028
1351  H 13  g 8      0.00004  -0.00001   0.00011
1352  H 13  g 9      0.00003   0.00005   0.00012
1353  H 14  s        0.00141   0.00017  -0.00359
1354  H 14  s       -0.01459  -0.00385   0.00877
1355  H 14  s        0.18497   0.00311  -0.18805
1356  H 14  s        0.22597  -0.08142  -0.43147
1357  H 14  s        0.66844   0.20796  -1.19728
1358  H 14  px      -0.00002   0.00001  -0.00005
1359  H 14  py      -0.00097  -0.00026   0.00131
1360  H 14  pz       0.00097   0.00044  -0.00099
1361  H 14  px       0.00067  -0.00021  -0.00172
1362  H 14  py       0.00046  -0.00025   0.00013
1363  H 14  pz      -0.00143  -0.00105  -0.00128
1364  H 14  px      -0.00223   0.00725   0.01028
1365  H 14  py       0.04207   0.00752  -0.00486
1366  H 14  pz      -0.03472   0.00963   0.04727
1367  H 14  px      -0.00942  -0.00375   0.01605
1368  H 14  py       0.11456   0.01290  -0.06761
1369  H 14  pz      -0.06451   0.01518   0.11271
1370  H 14  d 1      0.00003  -0.00016  -0.00030
1371  H 14  d 2      0.00083   0.00026  -0.00086
1372  H 14  d 3     -0.00017   0.00012   0.00066
1373  H 14  d 4      0.00009   0.00020   0.00030
1374  H 14  d 5      0.00023   0.00015   0.00005
1375  H 14  d 1     -0.00018   0.00095   0.00104
1376  H 14  d 2     -0.01002  -0.00202   0.00753
1377  H 14  d 3      0.00347  -0.00101  -0.00761
1378  H 14  d 4      0.00003  -0.00119  -0.00191
1379  H 14  d 5     -0.00389  -0.00178  -0.00070
1380  H 14  d 1      0.00145   0.00229  -0.00103
1381  H 14  d 2     -0.02496  -0.00470   0.02192
1382  H 14  d 3     -0.00416  -0.01073  -0.02454
1383  H 14  d 4      0.00183  -0.00194  -0.00944
1384  H 14  d 5     -0.01871  -0.00447   0.00078
1385  H 14  f 1     -0.00016  -0.00017  -0.00014
1386  H 14  f 2      0.00012  -0.00003  -0.00019
1387  H 14  f 3      0.00055   0.00002  -0.00043
1388  H 14  f 4     -0.00009  -0.00006   0.00019
1389  H 14  f 5     -0.00005  -0.00000  -0.00004
1390  H 14  f 6      0.00044   0.00012  -0.00012
1391  H 14  f 7      0.00011   0.00004   0.00002
1392  H 14  f 1     -0.00271  -0.00096  -0.00045
1393  H 14  f 2     -0.00038  -0.00090  -0.00088
1394  H 14  f 3      0.00356  -0.00001  -0.00845
1395  H 14  f 4      0.00319   0.00274   0.00263
1396  H 14  f 5     -0.00029   0.00080   0.00288
1397  H 14  f 6      0.00537   0.00186  -0.00217
1398  H 14  f 7     -0.00066  -0.00088  -0.00042
1399  H 14  g 1      0.00001  -0.00001  -0.00005
1400  H 14  g 2      0.00039   0.00020  -0.00002
1401  H 14  g 3     -0.00001   0.00006   0.00019
1402  H 14  g 4     -0.00002   0.00014   0.00070
1403  H 14  g 5     -0.00030  -0.00012   0.00015
1404  H 14  g 6      0.00004  -0.00006  -0.00023
1405  H 14  g 7     -0.00040  -0.00008   0.00044
1406  H 14  g 8      0.00002   0.00007   0.00009
1407  H 14  g 9      0.00018   0.00014   0.00013
1408  O 8   s        0.00114   0.00098  -0.00006
1409  O 8   s       -0.03709  -0.02737   0.00085
1410  O 8   s       -0.00123  -0.00056  -0.00055
1411  O 8   s       -0.05389  -0.03914   0.00227
1412  O 8   s        0.13868   0.08720   0.04399
1413  O 8   s        0.30623   0.12509   0.02157
1414  O 8   px       0.01012  -0.01172   0.00006
1415  O 8   py       0.02541   0.01832   0.00335
1416  O 8   pz      -0.00845   0.01236   0.00389
1417  O 8   px       0.01412  -0.01674   0.00148
1418  O 8   py       0.04275   0.03025   0.00556
1419  O 8   pz      -0.00943   0.01723   0.00479
1420  O 8   px       0.03381  -0.05417  -0.01202
1421  O 8   py       0.04215   0.03321   0.00321
1422  O 8   pz      -0.05179   0.05450   0.02282
1423  O 8   px       0.10819  -0.04828  -0.03691
1424  O 8   py      -0.02260  -0.04610  -0.00884
1425  O 8   pz      -0.12995   0.07660   0.07604
1426  O 8   px       0.01149  -0.20264  -0.07747
1427  O 8   py      -0.08158  -0.01550   0.00511
1428  O 8   pz      -0.28847   0.05176   0.10529
1429  O 8   d 1     -0.00033  -0.00020  -0.00010
1430  O 8   d 2     -0.00016   0.00004   0.00002
1431  O 8   d 3     -0.00004  -0.00010  -0.00004
1432  O 8   d 4      0.00021   0.00007   0.00009
1433  O 8   d 5      0.00012  -0.00005   0.00003
1434  O 8   d 1      0.00171   0.00072   0.00006
1435  O 8   d 2      0.00078   0.00050   0.00063
1436  O 8   d 3      0.00044   0.00169   0.00066
1437  O 8   d 4     -0.00197  -0.00133  -0.00023
1438  O 8   d 5      0.00068   0.00089   0.00006
1439  O 8   d 1     -0.01466   0.00767   0.00391
1440  O 8   d 2      0.01174  -0.01361  -0.00801
1441  O 8   d 3      0.01405  -0.00941  -0.00556
1442  O 8   d 4     -0.00011  -0.00454  -0.00313
1443  O 8   d 5     -0.00597  -0.00072   0.00221
1444  O 8   d 1     -0.02697   0.02966   0.01632
1445  O 8   d 2      0.05380  -0.02360  -0.02169
1446  O 8   d 3      0.04836  -0.02279  -0.02814
1447  O 8   d 4      0.00217   0.00302  -0.00266
1448  O 8   d 5     -0.03387  -0.01126   0.00670
1449  O 8   f 1     -0.00018   0.00000   0.00005
1450  O 8   f 2      0.00001  -0.00018  -0.00013
1451  O 8   f 3      0.00016  -0.00007  -0.00006
1452  O 8   f 4     -0.00015  -0.00002  -0.00002
1453  O 8   f 5      0.00013  -0.00001  -0.00003
1454  O 8   f 6      0.00011   0.00023   0.00007
1455  O 8   f 7      0.00003  -0.00007  -0.00005
1456  O 8   f 1      0.00121  -0.00071  -0.00056
1457  O 8   f 2      0.00016   0.00164   0.00108
1458  O 8   f 3     -0.00208   0.00062   0.00042
1459  O 8   f 4      0.00064  -0.00040  -0.00008
1460  O 8   f 5      0.00017  -0.00073  -0.00014
1461  O 8   f 6     -0.00038  -0.00099  -0.00032
1462  O 8   f 7     -0.00052   0.00067   0.00035
1463  O 8   f 1      0.01143  -0.00136  -0.00289
1464  O 8   f 2     -0.00925  -0.00062   0.00136
1465  O 8   f 3     -0.00881   0.00955   0.00609
1466  O 8   f 4      0.01057   0.00437   0.00171
1467  O 8   f 5     -0.00461   0.00250   0.00268
1468  O 8   f 6     -0.00266  -0.01022  -0.00592
1469  O 8   f 7      0.00037   0.00892   0.00246
1470  O 8   g 1      0.00010   0.00010   0.00005
1471  O 8   g 2      0.00005  -0.00020  -0.00010
1472  O 8   g 3     -0.00031   0.00019   0.00010
1473  O 8   g 4      0.00016  -0.00003   0.00002
1474  O 8   g 5      0.00008  -0.00007  -0.00003
1475  O 8   g 6      0.00008   0.00010   0.00003
1476  O 8   g 7     -0.00007   0.00007  -0.00001
1477  O 8   g 8      0.00002  -0.00008  -0.00004
1478  O 8   g 9      0.00002   0.00006   0.00003
1479  O 8   g 1     -0.00172  -0.00114  -0.00033
1480  O 8   g 2      0.00189   0.00128   0.00066
1481  O 8   g 3      0.00123   0.00007  -0.00036
1482  O 8   g 4     -0.00174  -0.00108  -0.00064
1483  O 8   g 5     -0.00003   0.00011  -0.00015
1484  O 8   g 6     -0.00278   0.00033   0.00015
1485  O 8   g 7     -0.00009   0.00023   0.00057
1486  O 8   g 8     -0.00013   0.00130   0.00068
1487  O 8   g 9      0.00098  -0.00115  -0.00064
1488  O 8   h 1      0.00006   0.00016   0.00006
1489  O 8   h 2     -0.00025  -0.00017  -0.00005
1490  O 8   h 3      0.00013   0.00002  -0.00006
1491  O 8   h 4      0.00027  -0.00021  -0.00000
1492  O 8   h 5     -0.00012   0.00022   0.00010
1493  O 8   h 6     -0.00026   0.00001   0.00002
1494  O 8   h 7     -0.00029  -0.00016  -0.00004
1495  O 8   h 8      0.00011  -0.00020  -0.00013
1496  O 8   h 9      0.00010   0.00028   0.00007
1497  O 8   h10      0.00018  -0.00012  -0.00000
1498  O 8   h11     -0.00018  -0.00001   0.00001
1499  H 15  s        0.00319   0.00419   0.00077
1500  H 15  s        0.02452   0.00197  -0.00116
1501  H 15  s       -0.12728   0.14012   0.07504
1502  H 15  s       -0.61766  -0.30852   0.08434
1503  H 15  s        0.19761   0.93965   0.19653
1504  H 15  px       0.00042   0.00063  -0.00008
1505  H 15  py      -0.00059  -0.00114  -0.00020
1506  H 15  pz      -0.00064  -0.00201  -0.00031
1507  H 15  px      -0.00197  -0.00088   0.00096
1508  H 15  py       0.00378   0.00206   0.00015
1509  H 15  pz       0.00369   0.00409   0.00053
1510  H 15  px       0.03012  -0.00790  -0.01698
1511  H 15  py      -0.03978  -0.00067   0.00732
1512  H 15  pz      -0.06844  -0.00867   0.01201
1513  H 15  px       0.06977   0.03869  -0.00844
1514  H 15  py      -0.09834  -0.01659   0.02638
1515  H 15  pz      -0.17972  -0.04615   0.01973
1516  H 15  d 1     -0.00007   0.00053   0.00020
1517  H 15  d 2      0.00036  -0.00025  -0.00006
1518  H 15  d 3      0.00037  -0.00024   0.00001
1519  H 15  d 4     -0.00058   0.00008   0.00012
1520  H 15  d 5     -0.00048  -0.00019  -0.00027
1521  H 15  d 1      0.00126  -0.00391  -0.00187
1522  H 15  d 2     -0.00439   0.00362   0.00164
1523  H 15  d 3     -0.00477   0.00195   0.00080
1524  H 15  d 4      0.00519  -0.00299  -0.00229
1525  H 15  d 5      0.00225   0.00056   0.00132
1526  H 15  d 1      0.01348   0.00035  -0.00550
1527  H 15  d 2     -0.03410  -0.00787   0.00128
1528  H 15  d 3     -0.02842  -0.01256  -0.00230
1529  H 15  d 4      0.01866   0.00003  -0.00669
1530  H 15  d 5     -0.00201  -0.00238  -0.00210
1531  H 15  f 1      0.00025   0.00007   0.00004
1532  H 15  f 2     -0.00000  -0.00028  -0.00020
1533  H 15  f 3     -0.00009   0.00041   0.00017
1534  H 15  f 4      0.00005  -0.00004   0.00000
1535  H 15  f 5      0.00011  -0.00043  -0.00026
1536  H 15  f 6     -0.00013  -0.00023  -0.00004
1537  H 15  f 7     -0.00023  -0.00006  -0.00006
1538  H 15  f 1     -0.00127   0.00015   0.00052
1539  H 15  f 2      0.00426  -0.00167  -0.00158
1540  H 15  f 3     -0.00716  -0.00152  -0.00059
1541  H 15  f 4     -0.00216  -0.00161  -0.00098
1542  H 15  f 5      0.00442   0.00037  -0.00071
1543  H 15  f 6      0.00271   0.00072   0.00077
1544  H 15  f 7      0.00039   0.00154   0.00107
1545  H 15  g 1      0.00004   0.00002   0.00001
1546  H 15  g 2      0.00002   0.00004   0.00009
1547  H 15  g 3      0.00040  -0.00015  -0.00015
1548  H 15  g 4     -0.00037  -0.00017  -0.00011
1549  H 15  g 5      0.00010  -0.00017  -0.00011
1550  H 15  g 6      0.00024  -0.00001  -0.00005
1551  H 15  g 7      0.00021  -0.00000   0.00008
1552  H 15  g 8     -0.00015   0.00011   0.00007
1553  H 15  g 9     -0.00002  -0.00004  -0.00005
1554  H 16  s        0.00281   0.00192  -0.00085
1555  H 16  s        0.00287   0.01876   0.00521
1556  H 16  s        0.17244  -0.06426  -0.06584
1557  H 16  s       -0.37590  -0.37991  -0.15793
1558  H 16  s        0.82390  -0.02821  -0.14774
1559  H 16  px      -0.00241  -0.00022  -0.00001
1560  H 16  py      -0.00110   0.00002   0.00015
1561  H 16  pz       0.00119   0.00010  -0.00006
1562  H 16  px       0.00795   0.00304   0.00107
1563  H 16  py       0.00296   0.00129   0.00032
1564  H 16  pz      -0.00126  -0.00153  -0.00073
1565  H 16  px      -0.03312  -0.04249  -0.01971
1566  H 16  py      -0.00199  -0.00265  -0.00362
1567  H 16  pz      -0.02348   0.03506   0.02058
1568  H 16  px      -0.03832  -0.08801  -0.04116
1569  H 16  py      -0.04154  -0.03430  -0.02635
1570  H 16  pz       0.07254   0.11694   0.05809
1571  H 16  d 1      0.00044   0.00024   0.00019
1572  H 16  d 2      0.00061   0.00014   0.00003
1573  H 16  d 3     -0.00050  -0.00006  -0.00003
1574  H 16  d 4      0.00020  -0.00090  -0.00030
1575  H 16  d 5     -0.00013   0.00037   0.00018
1576  H 16  d 1     -0.00058  -0.00169  -0.00169
1577  H 16  d 2     -0.00631  -0.00033   0.00055
1578  H 16  d 3      0.00529  -0.00059  -0.00030
1579  H 16  d 4     -0.00440   0.00783   0.00345
1580  H 16  d 5     -0.00056  -0.00489  -0.00194
1581  H 16  d 1     -0.01864  -0.01181  -0.00335
1582  H 16  d 2      0.00846   0.01390   0.00983
1583  H 16  d 3      0.01131  -0.01183  -0.00802
1584  H 16  d 4      0.01772   0.02933   0.01382
1585  H 16  d 5     -0.01690  -0.01923  -0.00481
1586  H 16  f 1      0.00015  -0.00010  -0.00012
1587  H 16  f 2     -0.00078  -0.00001   0.00009
1588  H 16  f 3      0.00049   0.00018   0.00011
1589  H 16  f 4     -0.00002  -0.00006  -0.00011
1590  H 16  f 5      0.00077  -0.00017  -0.00008
1591  H 16  f 6     -0.00014   0.00019   0.00015
1592  H 16  f 7     -0.00033  -0.00026  -0.00002
1593  H 16  f 1     -0.00452  -0.00339  -0.00108
1594  H 16  f 2      0.00315   0.00429   0.00215
1595  H 16  f 3      0.00224  -0.00251  -0.00188
1596  H 16  f 4     -0.00234  -0.00168  -0.00045
1597  H 16  f 5      0.00103  -0.00392  -0.00202
1598  H 16  f 6      0.00322   0.00576   0.00167
1599  H 16  f 7      0.00065  -0.00169  -0.00059
1600  H 16  g 1     -0.00029  -0.00025  -0.00008
1601  H 16  g 2      0.00028   0.00041   0.00018
1602  H 16  g 3      0.00024  -0.00026  -0.00017
1603  H 16  g 4     -0.00026   0.00005   0.00005
1604  H 16  g 5     -0.00008   0.00022   0.00011
1605  H 16  g 6     -0.00033   0.00000   0.00002
1606  H 16  g 7     -0.00007  -0.00033  -0.00012
1607  H 16  g 8      0.00013   0.00027   0.00006
1608  H 16  g 9      0.00012  -0.00006  -0.00001

          Ground-State Mulliken Net Atomic Charges

     Atom                 Charge (a.u.)
  ----------------------------------------
      1 O                    -0.757620
      2 H                     0.372094
      3 H                     0.378298
      4 O                    -0.691667
      5 H                     0.307444
      6 H                     0.372133
      7 O                    -0.651827
      8 H                     0.390335
      9 H                     0.254883
     10 O                    -0.665258
     11 H                     0.285367
     12 H                     0.367782
     13 O                    -0.603612
     14 H                     0.325252
     15 H                     0.261443
     16 O                    -0.711707
     17 H                     0.315328
     18 H                     0.406537
     19 O                    -0.658848
     20 H                     0.345616
     21 H                     0.341751
     22 O                    -0.673301
     23 H                     0.328397
     24 H                     0.361178
  ----------------------------------------
  Sum of atomic charges =     0.000000

 -----------------------------------------------------------------
                    Cartesian Multipole Moments
 -----------------------------------------------------------------
    Charge (ESU x 10^10)
                -0.0000
    Dipole Moment (Debye)
         X       6.6924      Y      -7.4245      Z       0.1409
       Tot       9.9965
    Quadrupole Moments (Debye-Ang)
        XX     -53.6309     XY      -8.1989     YY     -47.3333
        XZ     -13.8251     YZ       1.1419     ZZ     -55.7496
    Octopole Moments (Debye-Ang^2)
       XXX      43.9915    XXY      42.7772    XYY      38.8418
       YYY    -175.1484    XXZ       2.6298    XYZ       0.0914
       YYZ     -27.4031    XZZ       3.5983    YZZ     -18.0432
       ZZZ      17.4385
    Hexadecapole Moments (Debye-Ang^3)
      XXXX    -976.9884   XXXY    -259.1960   XXYY    -429.9966
      XYYY    -182.7469   YYYY   -1453.3971   XXXZ    -308.5300
      XXYZ     -66.6527   XYYZ     -56.7382   YYYZ      80.8088
      XXZZ    -312.7591   XYZZ     -85.3517   YYZZ    -335.4556
      XZZZ    -284.0578   YZZZ     -84.3477   ZZZZ    -623.6309
 -----------------------------------------------------------------
 Total job time:  11561.16s(wall), 363271.74s(cpu) 
 Wed Dec 18 00:54:53 2024

        *************************************************************
        *                                                           *
        *  Thank you very much for using Q-Chem.  Have a nice day.  *
        *                                                           *
        *************************************************************


