                  Welcome to Q-Chem
     A Quantum Leap Into The Future Of Chemistry


 Q-Chem 6.2 (devel), Q-Chem, Inc., Pleasanton, CA (2024)

 E. Epifanovsky,  A. T. B. Gilbert,  Xintian Feng,  Joonho Lee,  Yuezhi Mao,  
 N. Mardirossian,  P. Pokhilko,  A. White,  M. Wormit,  M. P. Coons,  
 A. L. Dempwolff,  Zhengting Gan,  D. Hait,  P. R. Horn,  L. D. Jacobson,  
 I. Kaliman,  J. Kussmann,  A. W. Lange,  Ka Un Lao,  D. S. Levine,  Jie Liu,  
 S. C. McKenzie,  A. F. Morrison,  K. D. Nanda,  F. Plasser,  D. R. Rehn,  
 M. L. Vidal,  Zhi-Qiang You,  Ying Zhu,  Huseyin Aksu,  B. Alam,  
 B. Albrecht,  A. Aldossary,  E. Alguire,  J. H. Andersen,  
 J. E. Arias-Martinez,  V. Athavale,  D. Barton,  K. Begam,  A. Behn,  
 N. Bellonzi,  Y. A. Bernard,  E. J. Berquist,  H. Burton,  A. Carreras,  
 K. Carter-Fenk,  Mathew Chow,  Romit Chakraborty,  Chandrima Chakravarty,  
 Junhan Chen,  A. D. Chien,  K. D. Closser,  V. Cofer-Shabica,  L. Cunha,  
 S. Dasgupta,  Jia Deng,  Joseph Dickinson,  M. de Wergifosse,  
 M. Diedenhofen,  Hainam Do,  Wenjie Dou,  S. Ehlert,  Po-Tung Fang,  
 S. Fatehi,  Qingguo Feng,  Jonathan Fetherolf,  T. Friedhoff,  
 Thomas Froitzheim,  Sarai Folkestad,  B. Ganoe,  J. Gayvert,  Qinghui Ge,  
 G. Gidofalvi,  M. Gimferrer,  M. Goldey,  Montgomery Gray,  J. Gomes,  
 C. Gonzalez-Espinoza,  S. Gulania,  A. Gunina,  J. A. Gyamfi,  
 M. W. D. Hanson-Heine,  P. H. P. Harbach,  A. W. Hauser,  M. F. Herbst,  
 M. Hernandez Vera,  M. Hodecker,  Z. C. Holden,  S. Houck,  Xunkun Huang,  
 Kerwin Hui,  B. C. Huynh,  K. Ikeda,  M. Ivanov,  Nayanthara K. Jayadev,  
 Hyunjun Ji,  Zuxin Jin,  Hanjie Jiang,  Subrata Jana,  B. Kaduk,  
 S. Kaehler,  R. Kang,  K. Khistyaev,  Jaehoon Kim,  Yongbin Kim,  
 P. Klunzinger,  Z. Koczor-Benda,  Joong Hoon Koh,  D. Kosenkov,  
 Saikiran Kotaru,  L. Koulias,  T. Kowalczyk,  C. M. Krauter,  K. Kue,  
 A. Kunitsa,  T. Kus,  A. Landau,  K. V. Lawler,  D. Lefrancois,  S. Lehtola,  
 Rain Li,  Shaozhi Li,  Tao E. Li,  Yi-Pei Li,  Jiashu Liang,  M. Liebenthal,  
 Hung-Hsuan Lin,  You-Sheng Lin,  Fenglai Liu,  Kuan-Yu Liu,  Xiao Liu,  
 M. Loipersberger,  A. Luenser,  C. Malbon,  Aniket Mandal,  Manisha,  
 A. Manjanath,  P. Manohar,  E. Mansoor,  S. F. Manzer,  Shan-Ping Mao,  
 A. V. Marenich,  T. Markovich,  S. Mason,  F. Matz,  S. A. Maurer,  
 Samuel May,  Alexandra McIsaac,  P. F. McLaughlin,  M. F. S. J. Menger,  
 J.-M. Mewes,  S. A. Mewes,  P. Morgante,  Mohammad Mostafanejad,  
 Madhubani Mukherjee,  J. W. Mullinax,  Quyen Nguyen,  Avik Kumar Ojha,  
 K. J. Oosterbaan,  Eno Paenurk,  Xiaoliang Pan,  G. Paran,  V. Parravicini,  
 Alexander C. Paul,  Suranjan K. Paul,  F. Pavosevic,  Zheng Pei,  S. Prager,  
 E. I. Proynov,  E. Ramos,  B. Rana,  A. E. Rask,  A. Rettig,  R. M. Richard,  
 F. Rob,  E. Rossomme,  T. Scheele,  M. Scheurer,  M. Schneider,  
 P. E. Schneider,  Tim K. Schramm,  N. Sergueev,  S. M. Sharada,  
 Hengyuan Shen,  W. Skomorowski,  D. W. Small,  C. J. Stein,  
 Alistair J. Sterling,  Yingli Su,  Yu-Chuan Su,  E. J. Sundstrom,  
 J. Talbot,  Zhen Tao,  J. Thirman,  Hung-Yi Tsai,  T. Tsuchimochi,  
 N. M. Tubman,  C. Utku,  S. P. Veccham,  O. Vydrov,  Rahel Weiss,  
 J. Wenzel,  Jonathan Wong,  J. Witte,  H. Wu,  Yanze Wu,  A. Yamada,  
 Chou-Hsun Yang,  Kun Yao,  S. Yeganeh,  S. R. Yost,  Qi Yu,  A. Zech,  
 F. Zeller,  Chongxiao Zhao,  Igor Ying Zhang,  Xing Zhang,  Yu Zhang,  
 D. Zuev,  A. Aspuru-Guzik,  A. T. Bell,  N. A. Besley,  K. B. Bravaya,  
 B. R. Brooks,  D. Casanova,  Jeng-Da Chai,  Hsing-Ta Chen,  S. Coriani,  
 C. J. Cramer,  A. E. DePrince, III,  R. A. DiStasio Jr.,  A. Dreuw,  
 B. D. Dunietz,  T. R. Furlani,  W. A. Goddard III,  S. Grimme,  
 S. Hammes-Schiffer,  T. Head-Gordon,  W. J. Hehre,  Chao-Ping Hsu,  
 T.-C. Jagau,  Yousung Jung,  A. Klamt,  Jing Kong,  D. S. Lambrecht,  
 Xiangyuan Li,  WanZhen Liang,  N. J. Mayhall,  C. W. McCurdy,  J. B. Neaton,  
 T. Neudecker,  C. Ochsenfeld,  J. A. Parkhill,  R. Peverati,  
 V. A. Rassolov,  Haisheng Ren,  Yihan Shao,  L. V. Slipchenko,  
 R. P. Steele,  J. E. Subotnik,  A. J. W. Thom,  A. Tkatchenko,  
 D. G. Truhlar,  T. Van Voorhis,  Fan Wang,  T. A. Wesolowski,  K. B. Whaley,  
 H. L. Woodcock III,  P. M. Zimmerman,  S. Faraji,  P. M. W. Gill,  
 M. Head-Gordon,  J. M. Herbert,  A. I. Krylov

 Contributors to earlier versions of Q-Chem not listed above: 
 R. D. Adamson,  B. Austin,  R. Baer,  J. Baker,  G. J. O. Beran,  
 K. Brandhorst,  S. T. Brown,  E. F. C. Byrd,  Arup K. Chakraborty,  
 G. K. L. Chan,  Chun-Min Chang,  Yunqing Chen,  C.-L. Cheng,  
 Siu Hung Chien,  D. M. Chipman,  D. L. Crittenden,  H. Dachsel,  
 R. J. Doerksen,  A. D. Dutoi,  R. G. Edgar,  J. Fosso-Tande,  
 L. Fusti-Molnar,  D. Ghosh,  A. Ghysels,  A. Golubeva-Zadorozhnaya,  
 J. Gonthier,  M. S. Gordon,  S. R. Gwaltney,  G. Hawkins,  J. E. Herr,  
 A. Heyden,  S. Hirata,  E. G. Hohenstein,  G. Kedziora,  F. J. Keil,  
 C. Kelley,  Jihan Kim,  R. A. King,  R. Z. Khaliullin,  P. P. Korambath,  
 W. Kurlancheek,  A. Laurent,  A. M. Lee,  M. S. Lee,  S. V. Levchenko,  
 Ching Yeh Lin,  D. Liotard,  E. Livshits,  R. C. Lochan,  I. Lotan,  
 L. A. Martinez-Martinez,  P. E. Maslen,  N. Nair,  D. P. O'Neill,  
 D. Neuhauser,  E. Neuscamman,  C. M. Oana,  R. Olivares-Amaya,  R. Olson,  
 T. M. Perrine,  B. Peters,  P. A. Pieniazek,  A. Prociuk,  Y. M. Rhee,  
 J. Ritchie,  M. A. Rohrdanz,  E. Rosta,  N. J. Russ,  H. F. Schaefer III,  
 M. W. Schmidt,  N. E. Schultz,  S. Sharma,  N. Shenvi,  C. D. Sherrill,  
 A. C. Simmonett,  A. Sodt,  T. Stein,  D. Stuck,  K. S. Thanthiriwatte,  
 V. Vanovschi,  L. Vogt,  Tao Wang,  A. Warshel,  M. A. Watson,  
 C. F. Williams,  Q. Wu,  X. Xu,  Jun Yang,  W. Zhang,  Yan Zhao

   Please cite Q-Chem as follows:
  "Software for the frontiers of quantum chemistry:
   An overview of developments in the Q-Chem 5 package"
   J. Chem. Phys. 155, 084801 (2021)
   https://doi.org/10.1063/5.0055522 (open access)

 Q-Chem 6.2.2 for Intel X86 EM64T Linux

 Parts of Q-Chem use Armadillo 9.900.5 (Nocturnal Misbehaviour).
 http://arma.sourceforge.net/

 Q-Chem begins on Tue Dec 17 21:48:56 2024  

 Host: compute-0-15.local
0

     Scratch files written to /scratch/keith/A2D1_1//
 Processing $rem in /home/keith/software/qchem/qchem_622/config/preferences:
 Processing $rem in /home/keith/.qchemrc:

 Checking the input file for inconsistencies... 	...done.

--------------------------------------------------------------
User input:
--------------------------------------------------------------
$molecule
0 1
O 0.61838 -0.47016 0.36382
H -0.34202 -0.36246 0.41982
H 0.77338 -1.41916 0.59082
O 1.96208 1.91654 0.52682
H 1.32408 2.60154 0.67382
H 1.37968 1.18354 0.58382
O -2.18522 -0.38376 2.16882
H -2.72032 -1.17186 2.47682
H -2.89852 0.15054 1.69182
O 0.41498 -0.71826 -2.97018
H -0.40742 -0.23846 -3.10818
H 0.72858 -0.56656 -2.05718
O -2.86812 -0.68366 -1.98118
H -2.41912 -0.02346 -1.42018
H -3.67482 -0.76106 -1.50718
O 3.03908 0.15354 -1.64918
H 3.76308 0.09754 -1.00818
H 2.66408 0.95054 -1.22718
O -1.88482 1.88754 -1.02018
H -2.53682 2.55454 -1.13718
H -1.34652 2.15854 -0.26218
O -0.27842 1.32754 3.38582
H -0.61782 0.48254 3.03882
H 0.55028 1.01654 3.84082
O 1.30918 -3.04536 0.97382
H 2.19108 -2.78586 1.32482
H 1.57148 -3.61166 0.28582
$end

$rem
method                    b3lyp 
basis                     cc-pv5z 
mem_total                 48000
mem_static                8000
thresh                    12
scf_convergence           8
xc_grid                   000075000302
max_scf_cycles            2000
symmetry                  false
sym_ignore                true
print_orbitals true
$end
gui                       2
molden_format true
--------------------------------------------------------------
 ----------------------------------------------------------------
             Standard Nuclear Orientation (Angstroms)
    I     Atom           X                Y                Z
 ----------------------------------------------------------------
    1      O       0.6183800000    -0.4701600000     0.3638200000
    2      H      -0.3420200000    -0.3624600000     0.4198200000
    3      H       0.7733800000    -1.4191600000     0.5908200000
    4      O       1.9620800000     1.9165400000     0.5268200000
    5      H       1.3240800000     2.6015400000     0.6738200000
    6      H       1.3796800000     1.1835400000     0.5838200000
    7      O      -2.1852200000    -0.3837600000     2.1688200000
    8      H      -2.7203200000    -1.1718600000     2.4768200000
    9      H      -2.8985200000     0.1505400000     1.6918200000
   10      O       0.4149800000    -0.7182600000    -2.9701800000
   11      H      -0.4074200000    -0.2384600000    -3.1081800000
   12      H       0.7285800000    -0.5665600000    -2.0571800000
   13      O      -2.8681200000    -0.6836600000    -1.9811800000
   14      H      -2.4191200000    -0.0234600000    -1.4201800000
   15      H      -3.6748200000    -0.7610600000    -1.5071800000
   16      O       3.0390800000     0.1535400000    -1.6491800000
   17      H       3.7630800000     0.0975400000    -1.0081800000
   18      H       2.6640800000     0.9505400000    -1.2271800000
   19      O      -1.8848200000     1.8875400000    -1.0201800000
   20      H      -2.5368200000     2.5545400000    -1.1371800000
   21      H      -1.3465200000     2.1585400000    -0.2621800000
   22      O      -0.2784200000     1.3275400000     3.3858200000
   23      H      -0.6178200000     0.4825400000     3.0388200000
   24      H       0.5502800000     1.0165400000     3.8408200000
   25      O       1.3091800000    -3.0453600000     0.9738200000
   26      H       2.1910800000    -2.7858600000     1.3248200000
   27      H       1.5714800000    -3.6116600000     0.2858200000
 ----------------------------------------------------------------
 Nuclear Repulsion Energy =         540.92617116 hartrees
 There are       45 alpha and       45 beta electrons
 Requested basis set is cc-pV5Z
 There are 459 shells and 1809 basis functions

 Total QAlloc Memory Limit  48000 MB
 Mega-Array Size      7821 MB
 MEM_STATIC part      8000 MB

 A cutoff of  1.0D-12 yielded  58179 shell pairs
 There are    724139 function pairs (   1175551 Cartesian)
 Smallest overlap matrix eigenvalue = 1.67E-05

 Scale SEOQF with 1.000000e-01/1.000000e-01/1.000000e-01

 Standard Electronic Orientation quadrupole field applied
 Nucleus-field energy     =    -0.0000000089 hartrees
 Guess from superposition of atomic densities
 Warning:  Energy on first SCF cycle will be non-variational
 SAD guess density has 90.000000 electrons

 -----------------------------------------------------------------------
  General SCF calculation program by
  Eric Jon Sundstrom, Paul Horn, Yuezhi Mao, Dmitri Zuev, Alec White,
  David Stuck, Shaama M.S., Shane Yost, Joonho Lee, David Small,
  Daniel Levine, Susi Lehtola, Hugh Burton, Evgeny Epifanovsky,
  Bang C. Huynh
 -----------------------------------------------------------------------
 Exchange:     0.2000 Hartree-Fock + 0.0800 Slater + 0.7200 B88
 Correlation:  0.1900 VWN1RPA + 0.8100 LYP
 Using Euler-Maclaurin-Lebedev (75,302) quadrature formula
 A restricted SCF calculation will be
 performed using DIIS
 SCF converges when DIIS error is below 1.0e-08
 ---------------------------------------
  Cycle       Energy         DIIS error
 ---------------------------------------
    1    -687.9472704039      5.48e-03  
    2    -687.6939614158      1.43e-03  
    3    -687.0151297489      2.11e-03  
    4    -688.2788708820      6.62e-05  
    5    -688.2790417390      6.31e-05  
    6    -688.2800722322      7.41e-06  
    7    -688.2800855143      1.59e-06  
    8    -688.2800858512      1.20e-06  
    9    -688.2800862295      7.24e-08  
   10    -688.2800862306      3.63e-08  
   11    -688.2800862309      1.51e-08  
   12    -688.2800862310      9.84e-10  Convergence criterion met
 ---------------------------------------
 SCF time:   CPU 324776.09s  wall 10250.00s 
 SCF   energy =  -688.28008623
 Total energy =  -688.28008623

 --------------------------------------------------------------

                    Orbital Energies (a.u.)
 --------------------------------------------------------------

 Alpha MOs
 -- Occupied --
-19.1824 -19.1724 -19.1697 -19.1278 -19.1238 -19.1198 -19.1151 -19.0996
-19.0790  -1.0663  -1.0598  -1.0460  -1.0215  -1.0122  -1.0075  -0.9987
 -0.9853  -0.9595  -0.5820  -0.5716  -0.5562  -0.5371  -0.5231  -0.5216
 -0.5162  -0.4920  -0.4740  -0.4534  -0.4449  -0.4385  -0.4175  -0.3957
 -0.3937  -0.3919  -0.3776  -0.3631  -0.3604  -0.3589  -0.3420  -0.3242
 -0.3128  -0.3116  -0.3078  -0.2877  -0.2688
 -- Virtual --
 -0.0570  -0.0242  -0.0200   0.0029   0.0254   0.0276   0.0376   0.0409
  0.0518   0.0558   0.0777   0.0865   0.1032   0.1209   0.1307   0.1364
  0.1461   0.1620   0.1710   0.1791   0.1843   0.1938   0.2013   0.2041
  0.2076   0.2147   0.2222   0.2244   0.2257   0.2279   0.2331   0.2402
  0.2436   0.2544   0.2559   0.2620   0.2675   0.2680   0.2751   0.2768
  0.2814   0.2892   0.2953   0.2999   0.3074   0.3132   0.3143   0.3221
  0.3271   0.3331   0.3396   0.3463   0.3481   0.3549   0.3572   0.3642
  0.3652   0.3799   0.3840   0.3949   0.3966   0.4053   0.4128   0.4165
  0.4360   0.4462   0.4477   0.4515   0.4570   0.4696   0.4746   0.4805
  0.4911   0.4985   0.5027   0.5090   0.5197   0.5323   0.5326   0.5500
  0.5583   0.5777   0.5837   0.5916   0.6036   0.6101   0.6205   0.6257
  0.6313   0.6328   0.6426   0.6465   0.6592   0.6613   0.6720   0.6817
  0.6870   0.6940   0.7021   0.7094   0.7147   0.7179   0.7295   0.7329
  0.7365   0.7462   0.7497   0.7551   0.7617   0.7730   0.7767   0.7786
  0.7853   0.7936   0.7955   0.7989   0.8086   0.8110   0.8246   0.8270
  0.8303   0.8346   0.8422   0.8499   0.8573   0.8581   0.8678   0.8746
  0.8845   0.8893   0.8983   0.9159   0.9268   0.9353   0.9415   0.9458
  0.9492   0.9587   0.9659   0.9861   0.9950   0.9987   1.0094   1.0130
  1.0193   1.0289   1.0313   1.0454   1.0481   1.0549   1.0617   1.0675
  1.0769   1.0855   1.0932   1.0996   1.1027   1.1101   1.1130   1.1157
  1.1284   1.1382   1.1407   1.1474   1.1567   1.1652   1.1733   1.1811
  1.1891   1.1905   1.1930   1.2038   1.2132   1.2186   1.2238   1.2287
  1.2330   1.2483   1.2571   1.2653   1.2767   1.2801   1.2904   1.3032
  1.3045   1.3171   1.3262   1.3388   1.3448   1.3535   1.3618   1.3704
  1.3800   1.3834   1.3943   1.4004   1.4132   1.4212   1.4288   1.4404
  1.4450   1.4487   1.4645   1.4773   1.4787   1.4963   1.4970   1.5074
  1.5148   1.5221   1.5271   1.5378   1.5389   1.5444   1.5534   1.5671
  1.5742   1.5759   1.5875   1.5926   1.6003   1.6064   1.6084   1.6161
  1.6212   1.6264   1.6350   1.6389   1.6397   1.6531   1.6545   1.6678
  1.6701   1.6836   1.6921   1.6994   1.7030   1.7058   1.7113   1.7222
  1.7247   1.7273   1.7320   1.7457   1.7518   1.7536   1.7579   1.7708
  1.7716   1.7752   1.7819   1.7853   1.7950   1.8036   1.8074   1.8109
  1.8149   1.8197   1.8276   1.8336   1.8434   1.8488   1.8543   1.8609
  1.8660   1.8739   1.8764   1.8883   1.8920   1.8950   1.9066   1.9082
  1.9106   1.9230   1.9264   1.9308   1.9323   1.9410   1.9488   1.9526
  1.9580   1.9598   1.9774   1.9831   1.9869   1.9954   2.0006   2.0036
  2.0123   2.0250   2.0309   2.0387   2.0444   2.0545   2.0642   2.0698
  2.0717   2.0741   2.0854   2.0956   2.1070   2.1153   2.1217   2.1280
  2.1339   2.1435   2.1476   2.1516   2.1610   2.1671   2.1778   2.1825
  2.1976   2.2060   2.2156   2.2234   2.2337   2.2425   2.2537   2.2585
  2.2642   2.2794   2.2833   2.2919   2.3028   2.3075   2.3129   2.3292
  2.3386   2.3507   2.3590   2.3636   2.3723   2.3862   2.3989   2.4132
  2.4169   2.4275   2.4312   2.4423   2.4456   2.4512   2.4604   2.4676
  2.4806   2.4858   2.4964   2.5087   2.5218   2.5281   2.5340   2.5420
  2.5561   2.5604   2.5719   2.5737   2.5842   2.5866   2.5918   2.6070
  2.6235   2.6254   2.6323   2.6354   2.6472   2.6599   2.6697   2.6745
  2.6788   2.6841   2.6972   2.7113   2.7160   2.7225   2.7295   2.7386
  2.7495   2.7537   2.7581   2.7673   2.7898   2.7955   2.8033   2.8134
  2.8234   2.8284   2.8321   2.8353   2.8502   2.8570   2.8682   2.8779
  2.8795   2.8871   2.8965   2.9015   2.9195   2.9268   2.9350   2.9460
  2.9471   2.9588   2.9635   2.9680   2.9806   2.9876   2.9941   2.9995
  3.0111   3.0208   3.0293   3.0399   3.0411   3.0532   3.0634   3.0754
  3.0775   3.0882   3.0973   3.1085   3.1147   3.1233   3.1354   3.1504
  3.1570   3.1643   3.1918   3.2047   3.2178   3.2323   3.2431   3.2525
  3.2692   3.2788   3.2871   3.2919   3.2995   3.3023   3.3174   3.3187
  3.3315   3.3485   3.3587   3.3652   3.3790   3.3901   3.3964   3.4102
  3.4158   3.4227   3.4329   3.4434   3.4456   3.4547   3.4615   3.4773
  3.4826   3.4900   3.5047   3.5170   3.5205   3.5255   3.5393   3.5448
  3.5544   3.5581   3.5619   3.5658   3.5781   3.5855   3.6045   3.6075
  3.6183   3.6245   3.6375   3.6493   3.6596   3.6647   3.6830   3.6880
  3.6950   3.7032   3.7104   3.7121   3.7316   3.7479   3.7585   3.7596
  3.7679   3.7791   3.7843   3.7936   3.7955   3.8055   3.8167   3.8243
  3.8310   3.8378   3.8439   3.8461   3.8569   3.8668   3.8751   3.8889
  3.8958   3.9003   3.9108   3.9135   3.9181   3.9378   3.9416   3.9517
  3.9631   3.9769   3.9962   4.0178   4.0217   4.0256   4.0353   4.0438
  4.0475   4.0639   4.0751   4.0841   4.1032   4.1176   4.1406   4.1456
  4.1606   4.1794   4.1882   4.1981   4.2162   4.2237   4.2422   4.2466
  4.2604   4.2869   4.2937   4.3063   4.3100   4.3326   4.3443   4.3522
  4.3546   4.3746   4.3831   4.3963   4.4041   4.4176   4.4244   4.4339
  4.4358   4.4476   4.4574   4.4669   4.4746   4.4748   4.4807   4.4908
  4.4991   4.5121   4.5170   4.5218   4.5323   4.5366   4.5415   4.5469
  4.5485   4.5541   4.5555   4.5574   4.5614   4.5666   4.5738   4.5744
  4.5786   4.5916   4.5951   4.6012   4.6106   4.6161   4.6255   4.6279
  4.6303   4.6359   4.6388   4.6438   4.6502   4.6541   4.6597   4.6733
  4.6763   4.6839   4.6948   4.7035   4.7132   4.7169   4.7247   4.7271
  4.7351   4.7423   4.7496   4.7559   4.7667   4.7727   4.7819   4.7848
  4.7882   4.7932   4.8042   4.8051   4.8122   4.8154   4.8212   4.8311
  4.8412   4.8533   4.8572   4.8647   4.8734   4.8763   4.8943   4.9014
  4.9053   4.9113   4.9164   4.9211   4.9325   4.9343   4.9450   4.9554
  4.9607   4.9704   4.9735   4.9819   4.9952   5.0028   5.0230   5.0261
  5.0309   5.0401   5.0435   5.0512   5.0556   5.0685   5.0752   5.0878
  5.0903   5.1028   5.1068   5.1128   5.1259   5.1350   5.1459   5.1583
  5.1724   5.1753   5.1925   5.2025   5.2138   5.2220   5.2461   5.2540
  5.2612   5.2822   5.2862   5.2980   5.3036   5.3155   5.3263   5.3368
  5.3577   5.3625   5.3791   5.3926   5.4081   5.4230   5.4281   5.4318
  5.4381   5.4422   5.4531   5.4691   5.4746   5.4756   5.4839   5.4913
  5.5061   5.5116   5.5436   5.5546   5.5676   5.5890   5.5966   5.6133
  5.6378   5.6439   5.6587   5.6689   5.6774   5.6786   5.6912   5.7077
  5.7134   5.7457   5.7539   5.7594   5.7686   5.7856   5.7973   5.8063
  5.8358   5.8413   5.8751   5.8970   5.9227   5.9338   5.9625   5.9758
  5.9800   6.0008   6.0114   6.0247   6.0472   6.0610   6.0859   6.0982
  6.1069   6.1303   6.1417   6.1437   6.1556   6.1913   6.2036   6.2255
  6.2437   6.2474   6.2585   6.2631   6.2716   6.2747   6.2917   6.2977
  6.3010   6.3131   6.3215   6.3330   6.3414   6.3455   6.3584   6.3632
  6.3756   6.3814   6.3911   6.3972   6.4099   6.4147   6.4407   6.4603
  6.4657   6.4953   6.5129   6.5439   6.5792   6.6016   6.6078   6.6128
  6.6235   6.6306   6.6330   6.6360   6.6571   6.6665   6.6718   6.6847
  6.6862   6.7006   6.7088   6.7305   6.7379   6.7422   6.7481   6.7529
  6.7603   6.7674   6.7771   6.7802   6.7918   6.8016   6.8036   6.8113
  6.8142   6.8207   6.8279   6.8440   6.8449   6.8493   6.8579   6.8629
  6.8655   6.8833   6.8953   6.9008   6.9177   6.9254   6.9270   6.9357
  6.9399   6.9446   6.9523   6.9676   6.9724   6.9818   6.9897   6.9963
  7.0165   7.0267   7.0338   7.0419   7.0535   7.0610   7.0702   7.0873
  7.0991   7.1222   7.1354   7.1487   7.1641   7.1725   7.1757   7.1828
  7.1864   7.2054   7.2210   7.2318   7.2383   7.2544   7.2687   7.2749
  7.2803   7.2922   7.3000   7.3207   7.3400   7.3411   7.3547   7.3590
  7.3661   7.3836   7.3895   7.3974   7.4001   7.4075   7.4142   7.4274
  7.4611   7.4687   7.4887   7.5018   7.5052   7.5137   7.5291   7.5509
  7.5605   7.5957   7.6010   7.6116   7.6223   7.6300   7.6393   7.6563
  7.6644   7.7005   7.7088   7.7273   7.7370   7.7452   7.7473   7.7710
  7.7832   7.7899   7.8044   7.8097   7.8199   7.8268   7.8469   7.8554
  7.8812   7.9077   7.9174   7.9315   7.9344   7.9352   7.9496   7.9667
  7.9785   7.9908   8.0101   8.0295   8.0373   8.0600   8.0721   8.0993
  8.1111   8.1972   8.2076   8.2525   8.2679   8.3078   8.3254   8.3446
  8.3540   8.3854   8.4041   8.4101   8.4244   8.4615   8.5815   8.6025
  8.6236   8.6272   8.6579   8.7528   8.7825   8.8282   8.8858   8.9263
  8.9851   8.9941   9.0212   9.0251   9.0430   9.0760   9.0769   9.0954
  9.1042   9.1121   9.1335   9.1689   9.1766   9.1836   9.1921   9.2149
  9.2337   9.2476   9.2622   9.2783   9.3121   9.3164   9.3457   9.4209
  9.4712   9.4853   9.5439   9.6076   9.6342   9.7012   9.7089   9.7156
  9.7239   9.7392   9.7583   9.7650   9.7783   9.7815   9.7882   9.7975
  9.8053   9.8208   9.8251   9.8599   9.8830   9.9030   9.9284   9.9352
  9.9578   9.9784  10.0569  10.1720  10.2815  11.6212  11.6530  11.6649
 11.6922  11.7038  11.7196  11.7281  11.7360  11.7419  11.7447  11.7527
 11.7577  11.7672  11.7774  11.7845  11.7935  11.7961  11.7981  11.8198
 11.8292  11.8334  11.8434  11.8539  11.8584  11.8639  11.8662  11.8748
 11.8920  11.8996  11.9043  11.9097  11.9274  11.9312  11.9436  11.9489
 11.9741  11.9776  11.9837  11.9849  11.9985  12.0072  12.0184  12.0336
 12.0561  12.0589  12.0808  12.0841  12.0863  12.0920  12.1025  12.1048
 12.1148  12.1243  12.1278  12.1329  12.1332  12.1373  12.1416  12.1496
 12.1505  12.1528  12.1567  12.1610  12.1636  12.1736  12.1754  12.1793
 12.1798  12.1885  12.1893  12.1930  12.1946  12.2000  12.2080  12.2165
 12.2229  12.2247  12.2281  12.2384  12.2400  12.2427  12.2616  12.2635
 12.2661  12.2719  12.2812  12.2848  12.2878  12.2903  12.2942  12.2987
 12.3059  12.3099  12.3124  12.3144  12.3214  12.3265  12.3293  12.3410
 12.3533  12.3545  12.3563  12.3624  12.3672  12.3689  12.3846  12.3956
 12.3980  12.4067  12.4166  12.4256  12.4301  12.4481  12.4513  12.4590
 12.4633  12.4687  12.4737  12.5010  12.5035  12.5180  12.5202  12.5317
 12.5405  12.5482  12.5560  12.5608  12.5644  12.5686  12.5821  12.5892
 12.5997  12.6067  12.6276  12.6433  12.6477  12.6517  12.6675  12.6713
 12.6911  12.6927  12.7053  12.7114  12.7188  12.7285  12.7350  12.7387
 12.7441  12.7489  12.7523  12.7654  12.7661  12.7754  12.7923  12.7980
 12.8025  12.8057  12.8143  12.8229  12.8361  12.8410  12.8475  12.8532
 12.8605  12.8629  12.8693  12.8829  12.9069  12.9279  12.9322  12.9371
 12.9452  12.9620  12.9735  12.9850  12.9914  12.9941  13.0072  13.0182
 13.0232  13.0550  13.0627  13.0733  13.0846  13.1354  13.1540  13.1675
 13.2046  13.2075  13.2162  13.2235  13.2336  13.2410  13.2450  13.2545
 13.2553  13.2762  13.2843  13.2992  13.3021  13.3064  13.3083  13.3116
 13.3205  13.3305  13.3364  13.3426  13.3468  13.3540  13.3641  13.3709
 13.3758  13.3799  13.3845  13.3966  13.4025  13.4030  13.4111  13.4144
 13.4210  13.4237  13.4376  13.4404  13.4439  13.4503  13.4563  13.4573
 13.4657  13.4676  13.4727  13.4778  13.4798  13.4881  13.4924  13.4976
 13.5016  13.5048  13.5087  13.5141  13.5194  13.5280  13.5306  13.5359
 13.5433  13.5485  13.5524  13.5531  13.5580  13.5615  13.5653  13.5785
 13.5908  13.6045  13.6144  13.6165  13.6224  13.6317  13.6335  13.6372
 13.6450  13.6508  13.6603  13.6728  13.6897  13.6946  13.7032  13.7092
 13.7144  13.7251  13.7319  13.7376  13.7442  13.7589  13.7667  13.7740
 13.7830  13.7861  13.7930  13.7982  13.8089  13.8215  13.8313  13.8432
 13.8491  13.8537  13.8673  13.8750  13.8802  13.8876  13.8945  13.9141
 13.9212  13.9343  13.9500  13.9541  13.9772  14.0042  14.0080  14.0201
 14.0229  14.0273  14.0379  14.0400  14.0579  14.0754  14.0917  14.0960
 14.1019  14.1235  14.1343  14.1746  14.1805  14.2107  14.2274  14.2331
 14.2531  14.2558  14.2624  14.2857  14.3116  14.3290  14.3363  14.3477
 14.3659  14.3754  14.3947  14.4089  14.4241  14.4271  14.4400  14.4555
 14.4590  14.4642  14.5367  14.5656  14.5889  14.6346  14.6436  14.6480
 14.6794  14.7005  14.7037  14.7568  14.7945  14.8316  14.8694  14.9694
 15.0545  15.0972  15.1225  15.1685  15.1913  15.2146  15.2247  15.2416
 15.2477  15.3047  15.3234  15.3732  15.3889  15.3959  15.3986  15.4302
 15.4663  15.4690  15.4780  15.5226  15.5292  15.5870  15.5921  15.5975
 15.6039  15.6284  15.6829  15.6943  15.7136  15.7321  15.7348  15.7555
 15.7655  15.7730  15.7806  15.7951  15.7994  15.8094  15.8243  15.8362
 15.8536  15.8588  15.8792  15.8888  15.8938  15.9029  15.9171  15.9210
 15.9270  15.9395  15.9442  15.9601  15.9922  16.0171  16.0263  16.0360
 16.0438  16.0606  16.0673  16.0751  16.0767  16.0808  16.0852  16.1027
 16.1103  16.1266  16.1380  16.1483  16.1501  16.1627  16.1733  16.1764
 16.1799  16.1866  16.1968  16.2024  16.2087  16.2156  16.2235  16.2309
 16.2388  16.2434  16.2513  16.2614  16.2675  16.2726  16.2769  16.2924
 16.2928  16.3061  16.3122  16.3130  16.3297  16.3364  16.3447  16.3544
 16.3608  16.3677  16.3839  16.3970  16.4216  16.4335  16.4400  16.4473
 16.4635  16.4729  16.4978  16.5068  16.5165  16.5423  16.5676  16.6112
 16.6417  16.6733  16.7139  16.7465  16.7758  16.8422  16.8909  16.9113
 16.9265  16.9401  16.9527  16.9621  17.0043  17.0568  17.0677  17.0814
 17.1284  17.1310  17.1415  17.1460  17.1594  17.1720  17.1999  17.2090
 17.2199  17.2238  17.2387  17.2452  17.2495  17.2566  17.2660  17.2867
 17.3028  17.3208  17.3287  17.3424  17.3518  17.3605  17.3722  17.3797
 17.4253  17.4367  17.4602  17.4622  17.4762  17.4923  17.5153  17.5365
 17.5465  17.5533  17.5537  17.5666  17.5875  17.5997  17.6458  17.6525
 17.6586  17.6607  17.6942  17.7047  17.7253  17.7391  17.7587  17.7657
 17.7957  17.7987  17.8033  17.8317  17.8712  17.8869  17.9211  17.9545
 17.9574  17.9784  17.9967  18.0458  18.0503  18.0848  18.0888  18.0968
 18.1673  18.1711  18.1873  18.1973  18.2053  18.2115  18.2137  18.2174
 18.2267  18.2575  18.2804  18.2918  18.3048  18.3091  18.3189  18.3313
 18.3533  18.3633  18.3691  18.3770  18.3790  18.4029  18.4189  18.4259
 18.4374  18.4452  18.4751  18.4779  18.4986  18.5021  18.5066  18.5472
 18.5571  18.5616  18.5777  18.5820  18.5948  18.6187  18.6230  18.6311
 18.6422  18.6429  18.6546  18.6835  18.6941  18.7239  18.7288  18.7539
 18.7658  18.7753  18.7882  18.7918  18.8310  18.8338  18.8461  18.8672
 18.8749  18.9080  18.9200  18.9247  18.9398  18.9525  18.9643  18.9973
 19.0017  19.0493  19.0548  19.1027  19.1153  19.1202  19.1761  19.2358
 19.2534  19.2810  19.3008  19.3129  19.3386  19.3532  19.3674  19.3766
 19.3826  19.4111  19.4169  19.4309  19.4329  19.4505  19.4753  19.4779
 19.4977  19.5150  19.5342  19.5397  19.5447  19.5454  19.5489  19.5653
 19.5840  19.5929  19.6066  19.6134  19.6411  19.6499  19.6645  19.6735
 19.7106  19.7516  19.7780  19.7807  19.7900  19.7973  19.8262  19.8344
 19.8424  19.8684  19.9195  19.9506  20.1606  20.2554  20.3763  20.4419
 20.5736  20.6568  20.6865  20.7098  20.7132  20.7287  20.7401  20.7883
 20.8238  20.9028  20.9276  20.9557  20.9680  20.9934  20.9969  21.0833
 21.8102  21.8360  21.8648  21.9000  21.9135  21.9394  21.9463  21.9688
 21.9820  21.9998  22.0046  22.0213  22.0312  22.0316  22.0386  22.0566
 22.1007  22.1848  22.2211  22.2243  22.2646  22.2852  22.2940  22.3011
 22.3187  22.3572  22.3668  22.4114  22.4905  22.4997  22.5654  22.6802
 22.7012  22.7835  22.8149  22.8789  22.8900  22.9358  22.9393  22.9449
 22.9458  22.9751  23.0303  23.0460  23.0629  23.0734  23.1122  23.1898
 23.1904  23.1927  23.2193  23.2358  23.2887  23.3856  23.4888  23.5441
 23.5752  23.6078  23.7069  23.7071  23.7530  23.7669  23.7934  23.9203
 24.1492  24.1618  24.2108  24.3167  24.3944  24.3966  24.5078  24.5255
 24.5299  24.5807  24.6079  24.6290  24.7620  24.7717  24.8220  24.8729
 24.9508  25.0469  25.0637  25.0861  25.1177  25.1617  25.2424  25.2726
 25.2804  25.3075  25.4941  25.6751  25.8879  25.9602  26.0055  26.2349
 26.2994  26.3340  26.6872  63.6072  64.0118  64.1388  64.1944  64.2268
 64.2495  64.3328  64.6695  64.7350
 --------------------------------------------------------------


                        RESTRICTED (RHF) MOLECULAR ORBITAL COEFFICIENTS
                         1         2         3         4         5         6
 eigenvalues:        -19.182   -19.172   -19.170   -19.128   -19.124   -19.120
   1  O 1   s        0.00001  -0.00007  -0.00001  -0.97860   0.00004  -0.00001
   2  O 1   s        0.00002  -0.00012  -0.00001  -0.03109   0.00000  -0.00000
   3  O 1   s        0.00003  -0.00020  -0.00001  -0.08521   0.00000  -0.00000
   4  O 1   s       -0.00013   0.00025  -0.00006   0.01545   0.00007  -0.00004
   5  O 1   s        0.00019   0.00210   0.00064   0.01576  -0.00055   0.00031
   6  O 1   s        0.00168   0.00206   0.00167   0.00400  -0.00078   0.00113
   7  O 1   px      -0.00000  -0.00000   0.00000   0.00079  -0.00000  -0.00000
   8  O 1   py      -0.00000   0.00000  -0.00000   0.00064   0.00000  -0.00000
   9  O 1   pz       0.00000   0.00000   0.00000  -0.00027  -0.00000  -0.00000
  10  O 1   px      -0.00000  -0.00002  -0.00003   0.00046   0.00002   0.00000
  11  O 1   py       0.00001   0.00009   0.00004   0.00059  -0.00001   0.00001
  12  O 1   pz      -0.00000  -0.00002  -0.00000  -0.00019   0.00000   0.00000
  13  O 1   px       0.00008   0.00032   0.00014  -0.00632  -0.00007  -0.00004
  14  O 1   py      -0.00005  -0.00127  -0.00025  -0.00664   0.00010  -0.00002
  15  O 1   pz       0.00001   0.00029   0.00003   0.00223  -0.00002  -0.00001
  16  O 1   px       0.00035  -0.00014   0.00080  -0.00155  -0.00009  -0.00006
  17  O 1   py      -0.00090  -0.00132  -0.00163  -0.00100   0.00040  -0.00042
  18  O 1   pz       0.00011   0.00042   0.00008   0.00012  -0.00015   0.00010
  19  O 1   px      -0.00014  -0.00036   0.00046   0.00008  -0.00008   0.00002
  20  O 1   py      -0.00017  -0.00009  -0.00153  -0.00072   0.00020  -0.00050
  21  O 1   pz       0.00013  -0.00005   0.00030  -0.00049  -0.00010  -0.00002
  22  O 1   d 1      0.00000   0.00001   0.00000   0.00010   0.00000  -0.00000
  23  O 1   d 2     -0.00000   0.00000   0.00000   0.00009   0.00000   0.00000
  24  O 1   d 3      0.00000   0.00000  -0.00000   0.00023   0.00000  -0.00000
  25  O 1   d 4     -0.00000  -0.00000   0.00000   0.00001  -0.00000  -0.00000
  26  O 1   d 5      0.00000   0.00001  -0.00000  -0.00003   0.00000  -0.00000
  27  O 1   d 1      0.00000  -0.00004  -0.00000  -0.00017  -0.00000   0.00000
  28  O 1   d 2      0.00000  -0.00000  -0.00001  -0.00015  -0.00000  -0.00000
  29  O 1   d 3     -0.00000  -0.00002   0.00000  -0.00039  -0.00000   0.00000
  30  O 1   d 4      0.00001   0.00000  -0.00000  -0.00002   0.00000   0.00000
  31  O 1   d 5      0.00000  -0.00003   0.00002   0.00005  -0.00001   0.00000
  32  O 1   d 1     -0.00001   0.00002   0.00001  -0.00153   0.00005  -0.00000
  33  O 1   d 2     -0.00002  -0.00023  -0.00003  -0.00108   0.00003  -0.00000
  34  O 1   d 3     -0.00000  -0.00017  -0.00005  -0.00268   0.00004  -0.00003
  35  O 1   d 4      0.00001   0.00003   0.00005  -0.00002  -0.00003  -0.00001
  36  O 1   d 5     -0.00007  -0.00051  -0.00019   0.00012   0.00010  -0.00002
  37  O 1   d 1     -0.00007  -0.00006   0.00000   0.00057   0.00022  -0.00001
  38  O 1   d 2     -0.00004  -0.00020  -0.00025   0.00034   0.00006  -0.00005
  39  O 1   d 3     -0.00016  -0.00025  -0.00003   0.00087  -0.00000  -0.00008
  40  O 1   d 4      0.00001   0.00000   0.00016   0.00010   0.00002   0.00001
  41  O 1   d 5     -0.00026  -0.00020  -0.00039  -0.00016   0.00015  -0.00010
  42  O 1   f 1     -0.00000   0.00000   0.00000  -0.00010   0.00000  -0.00000
  43  O 1   f 2     -0.00000  -0.00000   0.00000   0.00002   0.00000   0.00000
  44  O 1   f 3     -0.00000  -0.00000  -0.00000  -0.00004  -0.00000   0.00000
  45  O 1   f 4     -0.00000  -0.00000  -0.00000   0.00004  -0.00000  -0.00000
  46  O 1   f 5      0.00000   0.00000   0.00000  -0.00006   0.00000  -0.00000
  47  O 1   f 6      0.00000  -0.00000   0.00000   0.00003  -0.00000   0.00000
  48  O 1   f 7      0.00000  -0.00001  -0.00000   0.00013  -0.00000  -0.00000
  49  O 1   f 1      0.00001   0.00004   0.00000   0.00085  -0.00001   0.00000
  50  O 1   f 2      0.00001  -0.00000  -0.00000  -0.00016  -0.00000  -0.00000
  51  O 1   f 3      0.00001   0.00004   0.00001   0.00032  -0.00000  -0.00000
  52  O 1   f 4      0.00001  -0.00002  -0.00000  -0.00033   0.00000   0.00000
  53  O 1   f 5     -0.00000  -0.00002  -0.00001   0.00047  -0.00000   0.00000
  54  O 1   f 6     -0.00001  -0.00003  -0.00001  -0.00027   0.00001  -0.00000
  55  O 1   f 7     -0.00001   0.00002  -0.00000  -0.00102   0.00000   0.00000
  56  O 1   f 1      0.00002   0.00006  -0.00000  -0.00031  -0.00008   0.00003
  57  O 1   f 2     -0.00002  -0.00002   0.00001   0.00010   0.00004   0.00001
  58  O 1   f 3      0.00005   0.00009   0.00009  -0.00016  -0.00002   0.00002
  59  O 1   f 4     -0.00002  -0.00007   0.00002   0.00019   0.00000  -0.00000
  60  O 1   f 5     -0.00002   0.00001  -0.00004  -0.00022   0.00003   0.00000
  61  O 1   f 6     -0.00001  -0.00006  -0.00006   0.00009   0.00002  -0.00001
  62  O 1   f 7     -0.00004  -0.00003  -0.00003   0.00064  -0.00001  -0.00000
  63  O 1   g 1     -0.00000   0.00000  -0.00000   0.00001  -0.00000   0.00000
  64  O 1   g 2      0.00000   0.00000   0.00000   0.00005   0.00000  -0.00000
  65  O 1   g 3      0.00000   0.00000   0.00000   0.00003  -0.00000   0.00000
  66  O 1   g 4     -0.00000  -0.00000  -0.00000   0.00006  -0.00000  -0.00000
  67  O 1   g 5     -0.00000  -0.00000   0.00000   0.00007  -0.00000  -0.00000
  68  O 1   g 6      0.00000   0.00000   0.00000   0.00001  -0.00000   0.00000
  69  O 1   g 7     -0.00000  -0.00000   0.00000  -0.00003  -0.00000   0.00000
  70  O 1   g 8      0.00000   0.00000  -0.00000  -0.00004  -0.00000  -0.00000
  71  O 1   g 9     -0.00000   0.00000  -0.00000   0.00014  -0.00000  -0.00000
  72  O 1   g 1      0.00001   0.00001   0.00002  -0.00002   0.00000  -0.00000
  73  O 1   g 2     -0.00000   0.00000  -0.00000  -0.00001  -0.00001   0.00000
  74  O 1   g 3      0.00000  -0.00001  -0.00000   0.00004  -0.00000   0.00000
  75  O 1   g 4      0.00001   0.00001   0.00001  -0.00000  -0.00000   0.00000
  76  O 1   g 5      0.00001   0.00001  -0.00000  -0.00000   0.00000   0.00000
  77  O 1   g 6     -0.00001  -0.00000  -0.00001  -0.00001   0.00001  -0.00000
  78  O 1   g 7      0.00001   0.00002   0.00001  -0.00001  -0.00000   0.00000
  79  O 1   g 8      0.00000  -0.00001   0.00001   0.00001  -0.00000   0.00000
  80  O 1   g 9      0.00001   0.00001   0.00001  -0.00004   0.00000   0.00000
  81  O 1   h 1      0.00000  -0.00000  -0.00000   0.00002  -0.00000  -0.00000
  82  O 1   h 2      0.00000  -0.00000   0.00000   0.00002  -0.00000  -0.00000
  83  O 1   h 3     -0.00000   0.00000  -0.00000  -0.00003   0.00000  -0.00000
  84  O 1   h 4     -0.00000  -0.00000  -0.00000   0.00001  -0.00000  -0.00000
  85  O 1   h 5     -0.00000  -0.00000  -0.00000  -0.00000   0.00000  -0.00000
  86  O 1   h 6     -0.00000  -0.00000  -0.00000   0.00002   0.00000  -0.00000
  87  O 1   h 7     -0.00000   0.00000   0.00000  -0.00003   0.00000  -0.00000
  88  O 1   h 8      0.00000  -0.00000   0.00000   0.00002  -0.00000   0.00000
  89  O 1   h 9      0.00000  -0.00000   0.00000   0.00004   0.00000   0.00000
  90  O 1   h10     -0.00000  -0.00000  -0.00000   0.00003   0.00000  -0.00000
  91  O 1   h11     -0.00000  -0.00001   0.00000  -0.00000  -0.00000   0.00000
  92  H 1   s       -0.00000  -0.00001  -0.00000   0.00017  -0.00000   0.00000
  93  H 1   s       -0.00002  -0.00001  -0.00003   0.00189   0.00001   0.00000
  94  H 1   s        0.00015   0.00005   0.00071  -0.01003  -0.00021  -0.00004
  95  H 1   s        0.00017  -0.00077   0.00092  -0.00268   0.00024  -0.00033
  96  H 1   s       -0.00028  -0.00039   0.00048  -0.00038   0.00014   0.00033
  97  H 1   px       0.00001  -0.00000  -0.00001   0.00021   0.00000  -0.00000
  98  H 1   py       0.00001  -0.00000   0.00000  -0.00003   0.00000   0.00000
  99  H 1   pz      -0.00001  -0.00000  -0.00000  -0.00001  -0.00000  -0.00000
 100  H 1   px      -0.00004   0.00002   0.00003  -0.00002  -0.00001   0.00002
 101  H 1   py      -0.00002   0.00000  -0.00001   0.00004  -0.00001  -0.00000
 102  H 1   pz       0.00004   0.00000   0.00000  -0.00003   0.00002   0.00001
 103  H 1   px       0.00021   0.00016   0.00020  -0.00810  -0.00002  -0.00012
 104  H 1   py       0.00008   0.00006   0.00008   0.00069   0.00010   0.00000
 105  H 1   pz      -0.00009  -0.00003   0.00006   0.00059  -0.00006  -0.00001
 106  H 1   px      -0.00000  -0.00026   0.00071  -0.00333   0.00011   0.00004
 107  H 1   py      -0.00014   0.00004   0.00015   0.00060   0.00014   0.00005
 108  H 1   pz       0.00013   0.00003   0.00011   0.00045   0.00016   0.00005
 109  H 1   d 1      0.00000  -0.00000   0.00000  -0.00002  -0.00000   0.00000
 110  H 1   d 2     -0.00001   0.00000   0.00000  -0.00000   0.00000   0.00000
 111  H 1   d 3      0.00001   0.00000  -0.00001  -0.00011   0.00001  -0.00000
 112  H 1   d 4     -0.00002   0.00000  -0.00000  -0.00002   0.00000  -0.00000
 113  H 1   d 5      0.00000  -0.00001  -0.00000   0.00019   0.00000  -0.00000
 114  H 1   d 1     -0.00001   0.00002  -0.00001   0.00035   0.00002  -0.00001
 115  H 1   d 2      0.00003  -0.00000  -0.00002  -0.00000  -0.00000  -0.00001
 116  H 1   d 3     -0.00003  -0.00003   0.00000   0.00133  -0.00001   0.00001
 117  H 1   d 4      0.00007  -0.00001   0.00002   0.00029  -0.00002   0.00001
 118  H 1   d 5      0.00000   0.00007   0.00004  -0.00223  -0.00002   0.00000
 119  H 1   d 1      0.00002   0.00002   0.00015   0.00063   0.00010   0.00002
 120  H 1   d 2     -0.00005  -0.00001   0.00001  -0.00008   0.00001   0.00001
 121  H 1   d 3     -0.00000  -0.00002  -0.00010   0.00164   0.00002   0.00001
 122  H 1   d 4     -0.00011  -0.00000   0.00007   0.00048   0.00002  -0.00001
 123  H 1   d 5      0.00008   0.00002   0.00007  -0.00292   0.00007  -0.00004
 124  H 1   f 1      0.00000   0.00000  -0.00000   0.00006  -0.00000  -0.00000
 125  H 1   f 2     -0.00000   0.00000  -0.00000  -0.00000   0.00000   0.00000
 126  H 1   f 3      0.00000  -0.00000   0.00000  -0.00002  -0.00000   0.00000
 127  H 1   f 4     -0.00000   0.00000   0.00000  -0.00003  -0.00000  -0.00000
 128  H 1   f 5      0.00000  -0.00000  -0.00000   0.00019   0.00000  -0.00000
 129  H 1   f 6     -0.00000  -0.00000   0.00000   0.00004  -0.00000  -0.00000
 130  H 1   f 7      0.00000   0.00001   0.00001  -0.00024  -0.00000  -0.00000
 131  H 1   f 1     -0.00000   0.00001   0.00003   0.00033   0.00003   0.00000
 132  H 1   f 2      0.00000  -0.00001  -0.00000  -0.00002   0.00000  -0.00000
 133  H 1   f 3     -0.00000  -0.00000  -0.00001  -0.00006  -0.00001  -0.00000
 134  H 1   f 4     -0.00000   0.00000  -0.00002  -0.00017   0.00001  -0.00000
 135  H 1   f 5     -0.00003  -0.00002  -0.00002   0.00096  -0.00000   0.00001
 136  H 1   f 6      0.00001  -0.00001   0.00002   0.00021   0.00000   0.00000
 137  H 1   f 7      0.00001   0.00002   0.00001  -0.00116   0.00001  -0.00000
 138  H 1   g 1      0.00000   0.00000   0.00000   0.00005   0.00000  -0.00000
 139  H 1   g 2      0.00000   0.00000  -0.00000  -0.00000   0.00000  -0.00000
 140  H 1   g 3      0.00000  -0.00000  -0.00000  -0.00001  -0.00000   0.00000
 141  H 1   g 4     -0.00000   0.00000   0.00000   0.00000  -0.00000   0.00000
 142  H 1   g 5      0.00000   0.00000   0.00000  -0.00008   0.00000  -0.00000
 143  H 1   g 6     -0.00000  -0.00000  -0.00000  -0.00004   0.00000  -0.00000
 144  H 1   g 7     -0.00000  -0.00000  -0.00000   0.00012   0.00000   0.00000
 145  H 1   g 8      0.00000  -0.00000   0.00000   0.00003  -0.00000   0.00000
 146  H 1   g 9      0.00000   0.00000   0.00000  -0.00015   0.00000  -0.00000
 147  H 2   s        0.00000   0.00002   0.00000   0.00013  -0.00000   0.00000
 148  H 2   s        0.00001   0.00037   0.00009   0.00221  -0.00004   0.00001
 149  H 2   s       -0.00077  -0.00304  -0.00130  -0.00985   0.00061  -0.00034
 150  H 2   s       -0.00133  -0.00133  -0.00320  -0.00340   0.00078  -0.00108
 151  H 2   s        0.00026   0.00060  -0.00043   0.00049  -0.00014  -0.00017
 152  H 2   px      -0.00001   0.00001  -0.00000  -0.00002   0.00000   0.00000
 153  H 2   py       0.00000  -0.00004   0.00000   0.00016  -0.00000  -0.00000
 154  H 2   pz       0.00000   0.00001  -0.00000  -0.00004  -0.00000  -0.00000
 155  H 2   px       0.00002  -0.00007   0.00001  -0.00005  -0.00000  -0.00000
 156  H 2   py      -0.00001   0.00027   0.00001   0.00031  -0.00000   0.00000
 157  H 2   pz      -0.00001  -0.00006  -0.00000  -0.00006   0.00000   0.00000
 158  H 2   px      -0.00004   0.00040   0.00004   0.00144  -0.00003   0.00005
 159  H 2   py      -0.00022  -0.00191  -0.00054  -0.00806   0.00028  -0.00012
 160  H 2   pz       0.00012   0.00043   0.00016   0.00188  -0.00007   0.00003
 161  H 2   px       0.00024   0.00016   0.00027   0.00049   0.00000   0.00011
 162  H 2   py      -0.00083  -0.00055  -0.00141  -0.00245   0.00040  -0.00040
 163  H 2   pz       0.00022   0.00022   0.00029   0.00095  -0.00009   0.00015
 164  H 2   d 1      0.00000  -0.00003  -0.00000  -0.00005   0.00000  -0.00000
 165  H 2   d 2     -0.00000  -0.00004  -0.00000  -0.00011   0.00000  -0.00000
 166  H 2   d 3      0.00000  -0.00003  -0.00000  -0.00013   0.00000  -0.00000
 167  H 2   d 4      0.00000   0.00001   0.00000   0.00001  -0.00000  -0.00000
 168  H 2   d 5     -0.00000  -0.00006  -0.00000  -0.00023   0.00000   0.00000
 169  H 2   d 1      0.00001   0.00017   0.00001   0.00055  -0.00001   0.00001
 170  H 2   d 2      0.00002   0.00023   0.00005   0.00103  -0.00002   0.00001
 171  H 2   d 3      0.00001   0.00020   0.00003   0.00116  -0.00002   0.00000
 172  H 2   d 4     -0.00001  -0.00007  -0.00000  -0.00013   0.00000   0.00000
 173  H 2   d 5      0.00004   0.00038   0.00005   0.00208  -0.00004   0.00001
 174  H 2   d 1     -0.00003   0.00025   0.00004   0.00128  -0.00002   0.00004
 175  H 2   d 2      0.00006   0.00004   0.00010   0.00142  -0.00004   0.00004
 176  H 2   d 3      0.00000   0.00030   0.00010   0.00145  -0.00005   0.00001
 177  H 2   d 4      0.00001  -0.00000  -0.00001  -0.00032   0.00001  -0.00002
 178  H 2   d 5      0.00001   0.00034   0.00020   0.00284  -0.00010   0.00003
 179  H 2   f 1      0.00000  -0.00001   0.00000   0.00018  -0.00000   0.00000
 180  H 2   f 2      0.00000   0.00001  -0.00000  -0.00003  -0.00000  -0.00000
 181  H 2   f 3     -0.00000  -0.00002   0.00000   0.00013  -0.00000   0.00000
 182  H 2   f 4     -0.00000   0.00001  -0.00000  -0.00009   0.00000  -0.00000
 183  H 2   f 5      0.00000   0.00000  -0.00000  -0.00002  -0.00000  -0.00000
 184  H 2   f 6     -0.00000   0.00001  -0.00000  -0.00011   0.00000  -0.00000
 185  H 2   f 7      0.00000   0.00001  -0.00000  -0.00008   0.00000  -0.00000
 186  H 2   f 1      0.00000   0.00024   0.00003   0.00114  -0.00002  -0.00000
 187  H 2   f 2     -0.00001  -0.00012  -0.00000  -0.00021   0.00001  -0.00000
 188  H 2   f 3      0.00001   0.00021   0.00002   0.00075  -0.00001  -0.00000
 189  H 2   f 4     -0.00001  -0.00017  -0.00002  -0.00057   0.00001  -0.00000
 190  H 2   f 5     -0.00000  -0.00004  -0.00000  -0.00009   0.00000  -0.00000
 191  H 2   f 6     -0.00002  -0.00016  -0.00003  -0.00073   0.00001  -0.00000
 192  H 2   f 7     -0.00000  -0.00019  -0.00001  -0.00055   0.00001  -0.00001
 193  H 2   g 1      0.00000  -0.00001  -0.00000  -0.00009   0.00000  -0.00000
 194  H 2   g 2     -0.00000  -0.00001  -0.00000  -0.00011   0.00000  -0.00000
 195  H 2   g 3      0.00000  -0.00000  -0.00000  -0.00002   0.00000  -0.00000
 196  H 2   g 4     -0.00000  -0.00001  -0.00000  -0.00013   0.00000  -0.00000
 197  H 2   g 5      0.00000  -0.00001  -0.00000  -0.00005   0.00000   0.00000
 198  H 2   g 6      0.00000   0.00000   0.00000   0.00001  -0.00000   0.00000
 199  H 2   g 7      0.00000  -0.00001  -0.00000  -0.00008   0.00000   0.00000
 200  H 2   g 8      0.00000   0.00001   0.00000   0.00004  -0.00000   0.00000
 201  H 2   g 9     -0.00000  -0.00001  -0.00000  -0.00014   0.00000   0.00000
 202  O 2   s       -0.00000   0.00001  -0.00001   0.00007  -0.00000  -0.00000
 203  O 2   s       -0.00000   0.00001  -0.00001  -0.00000   0.00001  -0.00000
 204  O 2   s       -0.00000   0.00002  -0.00002  -0.00001   0.00002  -0.00001
 205  O 2   s        0.00001  -0.00004   0.00003   0.00025   0.00003   0.00002
 206  O 2   s       -0.00003  -0.00017   0.00029  -0.00159  -0.00087   0.00004
 207  O 2   s       -0.00006  -0.00004   0.00002  -0.00093  -0.00106   0.00004
 208  O 2   px       0.00000   0.00000   0.00000  -0.00000   0.00000   0.00000
 209  O 2   py      -0.00000   0.00000   0.00000   0.00001   0.00000   0.00000
 210  O 2   pz      -0.00000   0.00000   0.00000   0.00000  -0.00000   0.00000
 211  O 2   px      -0.00000  -0.00000   0.00000   0.00001  -0.00002  -0.00000
 212  O 2   py       0.00001  -0.00000   0.00000  -0.00007  -0.00002  -0.00000
 213  O 2   pz       0.00000   0.00000  -0.00001  -0.00001   0.00003  -0.00000
 214  O 2   px       0.00001   0.00006  -0.00006  -0.00001   0.00021  -0.00002
 215  O 2   py      -0.00005   0.00007  -0.00008   0.00012   0.00021   0.00000
 216  O 2   pz       0.00000  -0.00001   0.00004   0.00002  -0.00011   0.00001
 217  O 2   px       0.00013   0.00002   0.00021   0.00073   0.00055   0.00001
 218  O 2   py      -0.00018   0.00002  -0.00027  -0.00050   0.00038   0.00007
 219  O 2   pz      -0.00003  -0.00006   0.00023  -0.00021  -0.00026   0.00001
 220  O 2   px       0.00001   0.00002   0.00006   0.00012   0.00008  -0.00003
 221  O 2   py      -0.00003  -0.00003   0.00001  -0.00008   0.00009   0.00005
 222  O 2   pz      -0.00002   0.00001   0.00005  -0.00006  -0.00004  -0.00001
 223  O 2   d 1     -0.00000   0.00000  -0.00000   0.00000   0.00000  -0.00000
 224  O 2   d 2     -0.00000   0.00000  -0.00000   0.00000   0.00000  -0.00000
 225  O 2   d 3     -0.00000  -0.00000   0.00000   0.00000   0.00000   0.00000
 226  O 2   d 4     -0.00000   0.00000  -0.00000   0.00000   0.00000  -0.00000
 227  O 2   d 5     -0.00000  -0.00000  -0.00000   0.00001  -0.00000   0.00000
 228  O 2   d 1      0.00000  -0.00000   0.00001   0.00000  -0.00000   0.00000
 229  O 2   d 2      0.00000  -0.00000   0.00000   0.00000  -0.00000   0.00000
 230  O 2   d 3      0.00000   0.00000  -0.00000  -0.00001  -0.00000  -0.00000
 231  O 2   d 4      0.00000  -0.00000   0.00000   0.00000  -0.00001   0.00000
 232  O 2   d 5      0.00001   0.00000   0.00001  -0.00004   0.00001  -0.00000
 233  O 2   d 1      0.00003  -0.00003   0.00001   0.00015  -0.00011  -0.00002
 234  O 2   d 2     -0.00002   0.00001  -0.00002  -0.00007   0.00005  -0.00001
 235  O 2   d 3     -0.00000   0.00001  -0.00002   0.00008   0.00006   0.00000
 236  O 2   d 4      0.00000   0.00001  -0.00004  -0.00003   0.00009  -0.00001
 237  O 2   d 5     -0.00004  -0.00001  -0.00006   0.00038  -0.00006   0.00000
 238  O 2   d 1      0.00005   0.00001   0.00001   0.00024  -0.00009  -0.00004
 239  O 2   d 2     -0.00001   0.00004  -0.00008  -0.00001   0.00005  -0.00001
 240  O 2   d 3     -0.00001  -0.00000   0.00004   0.00015   0.00004   0.00001
 241  O 2   d 4      0.00003   0.00002  -0.00010   0.00004   0.00012  -0.00000
 242  O 2   d 5     -0.00011  -0.00001  -0.00020  -0.00011  -0.00009   0.00000
 243  O 2   f 1     -0.00000  -0.00000  -0.00000   0.00001  -0.00000  -0.00000
 244  O 2   f 2     -0.00000   0.00000   0.00000  -0.00000   0.00000  -0.00000
 245  O 2   f 3     -0.00000  -0.00000   0.00000   0.00000   0.00000   0.00000
 246  O 2   f 4      0.00000  -0.00000   0.00000   0.00000  -0.00000   0.00000
 247  O 2   f 5     -0.00000  -0.00000  -0.00000  -0.00000   0.00000   0.00000
 248  O 2   f 6      0.00000  -0.00000   0.00000  -0.00000   0.00000   0.00000
 249  O 2   f 7     -0.00000  -0.00000  -0.00000   0.00001  -0.00000   0.00000
 250  O 2   f 1     -0.00000   0.00000   0.00000  -0.00009   0.00001   0.00000
 251  O 2   f 2      0.00000  -0.00000   0.00000   0.00003  -0.00001   0.00000
 252  O 2   f 3      0.00000  -0.00000   0.00000  -0.00001  -0.00001  -0.00000
 253  O 2   f 4     -0.00000   0.00000  -0.00001  -0.00001   0.00001  -0.00000
 254  O 2   f 5     -0.00000  -0.00000   0.00001   0.00002  -0.00001  -0.00000
 255  O 2   f 6     -0.00000   0.00000  -0.00001   0.00002  -0.00000  -0.00000
 256  O 2   f 7      0.00000   0.00000   0.00001  -0.00008  -0.00001  -0.00000
 257  O 2   f 1      0.00001  -0.00000   0.00006  -0.00009   0.00001   0.00002
 258  O 2   f 2      0.00001  -0.00002   0.00003   0.00005  -0.00002   0.00001
 259  O 2   f 3      0.00001  -0.00000   0.00002   0.00001  -0.00002  -0.00001
 260  O 2   f 4      0.00000   0.00001  -0.00004   0.00001   0.00005  -0.00000
 261  O 2   f 5     -0.00000   0.00000  -0.00004  -0.00001  -0.00000  -0.00000
 262  O 2   f 6     -0.00001   0.00000   0.00000   0.00005   0.00001   0.00000
 263  O 2   f 7      0.00003   0.00001   0.00004  -0.00004   0.00003  -0.00001
 264  O 2   g 1      0.00000  -0.00000   0.00000   0.00001   0.00000   0.00000
 265  O 2   g 2     -0.00000  -0.00000   0.00000   0.00000   0.00000   0.00000
 266  O 2   g 3     -0.00000   0.00000  -0.00000   0.00000   0.00000  -0.00000
 267  O 2   g 4      0.00000   0.00000  -0.00000   0.00000  -0.00000  -0.00000
 268  O 2   g 5     -0.00000   0.00000   0.00000  -0.00000  -0.00000   0.00000
 269  O 2   g 6      0.00000   0.00000  -0.00000  -0.00000  -0.00000   0.00000
 270  O 2   g 7      0.00000   0.00000  -0.00000  -0.00000  -0.00000  -0.00000
 271  O 2   g 8     -0.00000   0.00000   0.00000   0.00000  -0.00000  -0.00000
 272  O 2   g 9      0.00000   0.00000  -0.00000   0.00000   0.00000  -0.00000
 273  O 2   g 1     -0.00000  -0.00000  -0.00001   0.00004   0.00000  -0.00000
 274  O 2   g 2     -0.00000   0.00000  -0.00000  -0.00003   0.00000  -0.00000
 275  O 2   g 3     -0.00000  -0.00000   0.00000  -0.00001   0.00000   0.00000
 276  O 2   g 4      0.00000  -0.00000   0.00000   0.00001  -0.00001   0.00000
 277  O 2   g 5      0.00000   0.00000  -0.00000   0.00001   0.00001  -0.00000
 278  O 2   g 6     -0.00000  -0.00000   0.00001   0.00002  -0.00001   0.00000
 279  O 2   g 7      0.00000   0.00000   0.00001  -0.00001   0.00001   0.00000
 280  O 2   g 8      0.00000  -0.00000   0.00001  -0.00001  -0.00001   0.00000
 281  O 2   g 9      0.00000  -0.00000   0.00000  -0.00002   0.00000   0.00000
 282  O 2   h 1      0.00000   0.00000   0.00000  -0.00000  -0.00000   0.00000
 283  O 2   h 2     -0.00000   0.00000  -0.00000   0.00000   0.00000  -0.00000
 284  O 2   h 3     -0.00000   0.00000  -0.00000   0.00000  -0.00000  -0.00000
 285  O 2   h 4     -0.00000   0.00000  -0.00000  -0.00000   0.00000  -0.00000
 286  O 2   h 5     -0.00000  -0.00000  -0.00000  -0.00000   0.00000   0.00000
 287  O 2   h 6      0.00000  -0.00000   0.00000   0.00000  -0.00000   0.00000
 288  O 2   h 7     -0.00000  -0.00000   0.00000  -0.00000  -0.00000   0.00000
 289  O 2   h 8      0.00000  -0.00000   0.00000  -0.00000   0.00000   0.00000
 290  O 2   h 9     -0.00000  -0.00000  -0.00000   0.00000  -0.00000   0.00000
 291  O 2   h10     -0.00000   0.00000  -0.00000  -0.00000   0.00000  -0.00000
 292  O 2   h11     -0.00000   0.00000  -0.00000   0.00001  -0.00000  -0.00000
 293  H 3   s       -0.00000   0.00000  -0.00000  -0.00000   0.00000  -0.00000
 294  H 3   s       -0.00001  -0.00000   0.00001  -0.00011  -0.00002   0.00001
 295  H 3   s        0.00014  -0.00004   0.00001   0.00140   0.00008  -0.00005
 296  H 3   s        0.00010   0.00009  -0.00004   0.00026   0.00027  -0.00024
 297  H 3   s        0.00002   0.00002  -0.00001   0.00003  -0.00006  -0.00003
 298  H 3   px       0.00000   0.00000   0.00000   0.00000   0.00000  -0.00000
 299  H 3   py       0.00000  -0.00000   0.00000  -0.00001  -0.00000   0.00000
 300  H 3   pz      -0.00000   0.00000   0.00000  -0.00000   0.00000  -0.00000
 301  H 3   px      -0.00000  -0.00000  -0.00001  -0.00003  -0.00001   0.00000
 302  H 3   py       0.00000   0.00000  -0.00000   0.00004   0.00001  -0.00000
 303  H 3   pz       0.00000   0.00000   0.00000   0.00002  -0.00000  -0.00000
 304  H 3   px       0.00002  -0.00001   0.00001   0.00042  -0.00001  -0.00001
 305  H 3   py      -0.00007   0.00001   0.00001  -0.00048  -0.00011   0.00004
 306  H 3   pz      -0.00000   0.00001  -0.00003  -0.00010   0.00007   0.00001
 307  H 3   px       0.00002   0.00001  -0.00008   0.00027   0.00001  -0.00003
 308  H 3   py      -0.00007  -0.00003   0.00007  -0.00007  -0.00015   0.00011
 309  H 3   pz       0.00001  -0.00002  -0.00006  -0.00001   0.00004   0.00004
 310  H 3   d 1      0.00000   0.00000  -0.00000   0.00000   0.00000  -0.00000
 311  H 3   d 2     -0.00000   0.00000   0.00000  -0.00000   0.00000  -0.00000
 312  H 3   d 3      0.00000  -0.00000  -0.00000   0.00001  -0.00000  -0.00000
 313  H 3   d 4      0.00000  -0.00000   0.00000   0.00000  -0.00000  -0.00000
 314  H 3   d 5      0.00000  -0.00000   0.00000   0.00000   0.00000   0.00000
 315  H 3   d 1     -0.00001   0.00000   0.00001  -0.00005  -0.00000   0.00000
 316  H 3   d 2      0.00000  -0.00000   0.00000   0.00002  -0.00001  -0.00000
 317  H 3   d 3     -0.00001   0.00000   0.00000  -0.00007  -0.00000   0.00000
 318  H 3   d 4     -0.00000   0.00000  -0.00001  -0.00001   0.00001   0.00000
 319  H 3   d 5     -0.00001   0.00000  -0.00002   0.00000  -0.00001   0.00000
 320  H 3   d 1     -0.00002  -0.00000   0.00002  -0.00019  -0.00002   0.00001
 321  H 3   d 2     -0.00000   0.00001   0.00003   0.00002  -0.00003  -0.00002
 322  H 3   d 3     -0.00001  -0.00000   0.00002  -0.00002  -0.00004   0.00001
 323  H 3   d 4      0.00001  -0.00000   0.00001  -0.00001   0.00005   0.00001
 324  H 3   d 5     -0.00003  -0.00000   0.00005   0.00004  -0.00009   0.00003
 325  H 3   f 1     -0.00000   0.00000   0.00000  -0.00001   0.00000   0.00000
 326  H 3   f 2      0.00000  -0.00000   0.00000   0.00000  -0.00000   0.00000
 327  H 3   f 3      0.00000  -0.00000   0.00000   0.00001   0.00000   0.00000
 328  H 3   f 4      0.00000  -0.00000  -0.00000   0.00000  -0.00000   0.00000
 329  H 3   f 5     -0.00000  -0.00000   0.00000  -0.00000  -0.00000  -0.00000
 330  H 3   f 6      0.00000  -0.00000   0.00000  -0.00000   0.00000   0.00000
 331  H 3   f 7     -0.00000   0.00000   0.00000   0.00000  -0.00000   0.00000
 332  H 3   f 1      0.00000   0.00000  -0.00000  -0.00003   0.00002  -0.00001
 333  H 3   f 2     -0.00000   0.00000   0.00000   0.00001  -0.00002  -0.00000
 334  H 3   f 3      0.00000   0.00000  -0.00001   0.00000   0.00001  -0.00000
 335  H 3   f 4     -0.00000   0.00000   0.00001   0.00000  -0.00001  -0.00000
 336  H 3   f 5     -0.00000   0.00000   0.00000  -0.00002  -0.00000  -0.00000
 337  H 3   f 6      0.00000   0.00000  -0.00000  -0.00000   0.00000  -0.00000
 338  H 3   f 7     -0.00001  -0.00000   0.00000  -0.00002  -0.00002   0.00000
 339  H 3   g 1      0.00000   0.00000   0.00000  -0.00000   0.00000  -0.00000
 340  H 3   g 2     -0.00000  -0.00000   0.00000   0.00000  -0.00000   0.00000
 341  H 3   g 3      0.00000   0.00000  -0.00000   0.00000   0.00000   0.00000
 342  H 3   g 4      0.00000  -0.00000  -0.00000   0.00000   0.00000   0.00000
 343  H 3   g 5      0.00000   0.00000  -0.00000   0.00000   0.00000  -0.00000
 344  H 3   g 6     -0.00000  -0.00000   0.00000   0.00000  -0.00000  -0.00000
 345  H 3   g 7      0.00000  -0.00000  -0.00000  -0.00000   0.00000  -0.00000
 346  H 3   g 8      0.00000   0.00000   0.00000  -0.00000  -0.00000  -0.00000
 347  H 3   g 9     -0.00000  -0.00000  -0.00000  -0.00000   0.00000  -0.00000
 348  H 4   s        0.00000   0.00000  -0.00000   0.00001   0.00000  -0.00000
 349  H 4   s        0.00000  -0.00003   0.00003  -0.00007  -0.00010   0.00001
 350  H 4   s       -0.00018   0.00013  -0.00037   0.00011   0.00098   0.00006
 351  H 4   s       -0.00004   0.00011   0.00062   0.00100   0.00042   0.00019
 352  H 4   s        0.00001  -0.00011  -0.00011   0.00002   0.00022   0.00012
 353  H 4   px       0.00000   0.00000   0.00000  -0.00000  -0.00000  -0.00000
 354  H 4   py       0.00000   0.00000   0.00000  -0.00001  -0.00000   0.00000
 355  H 4   pz       0.00000   0.00000   0.00000   0.00000   0.00000   0.00000
 356  H 4   px      -0.00000  -0.00001  -0.00000  -0.00002   0.00001   0.00000
 357  H 4   py      -0.00001  -0.00001  -0.00002   0.00004  -0.00001   0.00000
 358  H 4   pz      -0.00000  -0.00000  -0.00001  -0.00000  -0.00002  -0.00000
 359  H 4   px      -0.00008   0.00006  -0.00016   0.00040   0.00017  -0.00001
 360  H 4   py      -0.00001   0.00010   0.00004  -0.00007   0.00038   0.00003
 361  H 4   pz       0.00000   0.00003  -0.00006  -0.00006   0.00014  -0.00002
 362  H 4   px      -0.00007   0.00004  -0.00044  -0.00018   0.00038  -0.00002
 363  H 4   py       0.00010   0.00003  -0.00007   0.00042   0.00048   0.00005
 364  H 4   pz       0.00000   0.00004  -0.00023   0.00003   0.00004  -0.00003
 365  H 4   d 1      0.00000  -0.00000   0.00001   0.00001  -0.00001   0.00000
 366  H 4   d 2      0.00000   0.00000   0.00000   0.00001  -0.00000   0.00000
 367  H 4   d 3     -0.00000   0.00000  -0.00000  -0.00002   0.00000  -0.00000
 368  H 4   d 4      0.00000   0.00000   0.00000   0.00000   0.00000   0.00000
 369  H 4   d 5     -0.00000   0.00000   0.00000  -0.00004   0.00000   0.00000
 370  H 4   d 1     -0.00001   0.00002  -0.00005   0.00001   0.00007  -0.00000
 371  H 4   d 2     -0.00001   0.00000  -0.00002  -0.00006   0.00002  -0.00001
 372  H 4   d 3      0.00001  -0.00001   0.00003   0.00008  -0.00004   0.00000
 373  H 4   d 4     -0.00000   0.00000  -0.00002  -0.00003   0.00001  -0.00000
 374  H 4   d 5     -0.00000  -0.00001  -0.00001   0.00025  -0.00004  -0.00001
 375  H 4   d 1     -0.00003   0.00005  -0.00004   0.00018   0.00011  -0.00001
 376  H 4   d 2      0.00000   0.00002  -0.00007   0.00002   0.00005  -0.00001
 377  H 4   d 3      0.00000  -0.00005  -0.00001  -0.00021  -0.00008  -0.00000
 378  H 4   d 4      0.00000   0.00002  -0.00002   0.00001   0.00008  -0.00001
 379  H 4   d 5     -0.00007  -0.00003  -0.00018  -0.00001  -0.00006  -0.00002
 380  H 4   f 1     -0.00000   0.00000  -0.00000   0.00000   0.00000  -0.00000
 381  H 4   f 2      0.00000   0.00000  -0.00000  -0.00001   0.00000  -0.00000
 382  H 4   f 3     -0.00000   0.00000  -0.00000  -0.00001  -0.00000  -0.00000
 383  H 4   f 4     -0.00000  -0.00000   0.00000  -0.00000  -0.00000   0.00000
 384  H 4   f 5      0.00000   0.00000  -0.00000  -0.00001  -0.00000  -0.00000
 385  H 4   f 6      0.00000  -0.00000  -0.00000  -0.00001   0.00000  -0.00000
 386  H 4   f 7      0.00000  -0.00000  -0.00000  -0.00001  -0.00000  -0.00000
 387  H 4   f 1     -0.00002   0.00000  -0.00005   0.00020  -0.00001  -0.00001
 388  H 4   f 2     -0.00000   0.00000  -0.00002  -0.00002   0.00003  -0.00001
 389  H 4   f 3      0.00000  -0.00001   0.00001   0.00009  -0.00004   0.00000
 390  H 4   f 4      0.00001  -0.00000   0.00002   0.00004  -0.00002   0.00000
 391  H 4   f 5      0.00001  -0.00001   0.00002  -0.00001  -0.00002   0.00000
 392  H 4   f 6      0.00000  -0.00000   0.00002   0.00005  -0.00001   0.00000
 393  H 4   f 7     -0.00000  -0.00002   0.00002   0.00011  -0.00005   0.00000
 394  H 4   g 1     -0.00000  -0.00000  -0.00000   0.00003  -0.00000  -0.00000
 395  H 4   g 2     -0.00000   0.00000   0.00000  -0.00000   0.00000  -0.00000
 396  H 4   g 3      0.00000  -0.00000   0.00000   0.00000  -0.00000   0.00000
 397  H 4   g 4      0.00000  -0.00000   0.00000   0.00000  -0.00000   0.00000
 398  H 4   g 5     -0.00000   0.00000  -0.00000  -0.00000   0.00000  -0.00000
 399  H 4   g 6      0.00000  -0.00000   0.00000   0.00000  -0.00000   0.00000
 400  H 4   g 7      0.00000   0.00000   0.00000  -0.00001   0.00000   0.00000
 401  H 4   g 8      0.00000  -0.00000   0.00000   0.00000  -0.00000   0.00000
 402  H 4   g 9      0.00000  -0.00000   0.00000  -0.00001  -0.00000   0.00000
 403  O 3   s        0.97817  -0.00000   0.00001  -0.00001  -0.00000   0.00001
 404  O 3   s        0.03045   0.00000   0.00001  -0.00001  -0.00002   0.00001
 405  O 3   s        0.08433   0.00000   0.00001  -0.00002  -0.00002   0.00002
 406  O 3   s       -0.01395  -0.00002   0.00004   0.00012   0.00002  -0.00006
 407  O 3   s       -0.00885   0.00004  -0.00046  -0.00043   0.00016   0.00005
 408  O 3   s       -0.00202   0.00015  -0.00095  -0.00034   0.00023   0.00056
 409  O 3   px      -0.00112  -0.00000   0.00000   0.00000   0.00000  -0.00000
 410  O 3   py      -0.00024   0.00000   0.00000  -0.00000  -0.00000  -0.00000
 411  O 3   pz      -0.00016  -0.00000   0.00000   0.00000  -0.00000  -0.00000
 412  O 3   px      -0.00068   0.00000  -0.00001  -0.00001  -0.00002   0.00000
 413  O 3   py      -0.00016  -0.00000  -0.00000  -0.00000   0.00000   0.00000
 414  O 3   pz      -0.00008   0.00001  -0.00000  -0.00001  -0.00000   0.00001
 415  O 3   px       0.00745  -0.00001   0.00008   0.00008   0.00010   0.00002
 416  O 3   py       0.00181   0.00003   0.00003   0.00000   0.00006  -0.00001
 417  O 3   pz       0.00085  -0.00002   0.00001   0.00002   0.00001  -0.00002
 418  O 3   px      -0.00017  -0.00008   0.00027   0.00023  -0.00000  -0.00016
 419  O 3   py       0.00060   0.00013   0.00038  -0.00008  -0.00069   0.00021
 420  O 3   pz      -0.00040  -0.00009  -0.00008   0.00022   0.00034  -0.00021
 421  O 3   px      -0.00003  -0.00004   0.00020   0.00015   0.00004  -0.00018
 422  O 3   py       0.00022   0.00010   0.00042  -0.00012  -0.00036   0.00001
 423  O 3   pz      -0.00014  -0.00012  -0.00016   0.00016   0.00028  -0.00013
 424  O 3   d 1      0.00003   0.00000   0.00000   0.00000   0.00000  -0.00000
 425  O 3   d 2     -0.00021  -0.00000  -0.00000  -0.00000   0.00000   0.00000
 426  O 3   d 3     -0.00013  -0.00000  -0.00000  -0.00000  -0.00000   0.00000
 427  O 3   d 4      0.00007  -0.00000  -0.00000   0.00000  -0.00000   0.00000
 428  O 3   d 5     -0.00002  -0.00000   0.00000   0.00000  -0.00000   0.00000
 429  O 3   d 1     -0.00006  -0.00000   0.00000  -0.00000  -0.00002   0.00000
 430  O 3   d 2      0.00032   0.00000  -0.00000  -0.00000   0.00000   0.00000
 431  O 3   d 3      0.00022   0.00000   0.00000  -0.00000   0.00000  -0.00000
 432  O 3   d 4     -0.00011   0.00000   0.00000  -0.00001   0.00002  -0.00000
 433  O 3   d 5      0.00003   0.00000  -0.00000  -0.00000   0.00001  -0.00000
 434  O 3   d 1     -0.00023  -0.00001  -0.00002  -0.00000   0.00010  -0.00001
 435  O 3   d 2      0.00193  -0.00000   0.00003   0.00002  -0.00001   0.00000
 436  O 3   d 3      0.00112  -0.00000   0.00000   0.00002  -0.00001   0.00001
 437  O 3   d 4     -0.00056   0.00001  -0.00002  -0.00000  -0.00004   0.00001
 438  O 3   d 5      0.00034   0.00000   0.00002   0.00001  -0.00003   0.00001
 439  O 3   d 1     -0.00025  -0.00005  -0.00012   0.00003   0.00034  -0.00006
 440  O 3   d 2     -0.00077  -0.00001   0.00007   0.00004  -0.00017  -0.00008
 441  O 3   d 3     -0.00047  -0.00001   0.00007   0.00003   0.00000   0.00004
 442  O 3   d 4      0.00040   0.00005   0.00005  -0.00007  -0.00039   0.00010
 443  O 3   d 5     -0.00000   0.00002   0.00005   0.00001  -0.00052   0.00004
 444  O 3   f 1      0.00004   0.00000   0.00000  -0.00000  -0.00000   0.00000
 445  O 3   f 2      0.00013  -0.00000   0.00000   0.00000  -0.00001  -0.00000
 446  O 3   f 3      0.00003   0.00000   0.00000   0.00000  -0.00000   0.00000
 447  O 3   f 4      0.00001   0.00000  -0.00000  -0.00000   0.00000  -0.00000
 448  O 3   f 5      0.00001  -0.00000   0.00000   0.00000  -0.00000   0.00000
 449  O 3   f 6     -0.00004   0.00000   0.00000  -0.00000  -0.00001  -0.00000
 450  O 3   f 7      0.00009  -0.00000   0.00000   0.00000   0.00000  -0.00000
 451  O 3   f 1     -0.00029   0.00000  -0.00000   0.00000   0.00001  -0.00000
 452  O 3   f 2     -0.00094   0.00000  -0.00001  -0.00001   0.00002  -0.00000
 453  O 3   f 3     -0.00023  -0.00000  -0.00000  -0.00000   0.00001  -0.00000
 454  O 3   f 4     -0.00004  -0.00000   0.00000   0.00001  -0.00001   0.00000
 455  O 3   f 5     -0.00009   0.00000   0.00000  -0.00001   0.00000  -0.00000
 456  O 3   f 6      0.00031  -0.00000  -0.00000   0.00001   0.00003   0.00000
 457  O 3   f 7     -0.00069   0.00000  -0.00000  -0.00000   0.00000  -0.00000
 458  O 3   f 1      0.00021   0.00001   0.00002   0.00000  -0.00025   0.00000
 459  O 3   f 2      0.00054   0.00001  -0.00002  -0.00002  -0.00006   0.00003
 460  O 3   f 3      0.00014   0.00000  -0.00002  -0.00001   0.00003   0.00002
 461  O 3   f 4      0.00008   0.00001  -0.00001  -0.00004   0.00001   0.00001
 462  O 3   f 5      0.00006  -0.00000   0.00000   0.00001  -0.00001  -0.00002
 463  O 3   f 6     -0.00014   0.00000   0.00000  -0.00001   0.00001   0.00000
 464  O 3   f 7      0.00037   0.00000  -0.00003  -0.00005   0.00011  -0.00001
 465  O 3   g 1      0.00007  -0.00000   0.00000   0.00000  -0.00000   0.00000
 466  O 3   g 2      0.00008   0.00000   0.00000  -0.00000   0.00000   0.00000
 467  O 3   g 3      0.00004  -0.00000  -0.00000  -0.00000   0.00000   0.00000
 468  O 3   g 4     -0.00008  -0.00000   0.00000  -0.00000  -0.00000   0.00000
 469  O 3   g 5      0.00002   0.00000  -0.00000  -0.00000  -0.00000   0.00000
 470  O 3   g 6      0.00001   0.00000   0.00000   0.00000  -0.00000  -0.00000
 471  O 3   g 7     -0.00001   0.00000  -0.00000   0.00000   0.00000   0.00000
 472  O 3   g 8     -0.00003  -0.00000  -0.00000  -0.00000   0.00000   0.00000
 473  O 3   g 9      0.00009  -0.00000   0.00000  -0.00000  -0.00000   0.00000
 474  O 3   g 1      0.00000  -0.00000  -0.00000  -0.00000   0.00002   0.00000
 475  O 3   g 2     -0.00002  -0.00000  -0.00000   0.00001   0.00000  -0.00001
 476  O 3   g 3     -0.00001  -0.00000   0.00001   0.00001  -0.00001  -0.00001
 477  O 3   g 4     -0.00000   0.00000  -0.00000  -0.00000   0.00001  -0.00000
 478  O 3   g 5      0.00001  -0.00000   0.00000   0.00001   0.00000  -0.00000
 479  O 3   g 6     -0.00001  -0.00000  -0.00000   0.00000   0.00003   0.00000
 480  O 3   g 7      0.00000   0.00000  -0.00000  -0.00001  -0.00000  -0.00000
 481  O 3   g 8     -0.00000  -0.00000   0.00001   0.00001  -0.00002  -0.00000
 482  O 3   g 9     -0.00001  -0.00000   0.00000   0.00001  -0.00001  -0.00000
 483  O 3   h 1     -0.00003   0.00000   0.00000   0.00000  -0.00000   0.00000
 484  O 3   h 2      0.00001  -0.00000   0.00000   0.00000  -0.00001   0.00000
 485  O 3   h 3     -0.00002  -0.00000  -0.00000  -0.00000   0.00000   0.00000
 486  O 3   h 4      0.00005  -0.00000  -0.00000  -0.00000   0.00000   0.00000
 487  O 3   h 5      0.00001  -0.00000   0.00000   0.00000  -0.00000  -0.00000
 488  O 3   h 6     -0.00001   0.00000  -0.00000   0.00000  -0.00000   0.00000
 489  O 3   h 7     -0.00002   0.00000  -0.00000  -0.00000   0.00000   0.00000
 490  O 3   h 8     -0.00002  -0.00000   0.00000   0.00000  -0.00000   0.00000
 491  O 3   h 9     -0.00001   0.00000  -0.00000  -0.00000  -0.00000   0.00000
 492  O 3   h10     -0.00001   0.00000  -0.00000  -0.00000  -0.00000   0.00000
 493  O 3   h11     -0.00001  -0.00000   0.00000   0.00000  -0.00000   0.00000
 494  H 5   s       -0.00012   0.00000   0.00000  -0.00000   0.00000   0.00000
 495  H 5   s       -0.00167  -0.00001  -0.00005  -0.00001   0.00002  -0.00001
 496  H 5   s        0.00708   0.00006   0.00046   0.00017  -0.00084   0.00012
 497  H 5   s        0.00207   0.00017   0.00106  -0.00006  -0.00076  -0.00016
 498  H 5   s        0.00011   0.00001   0.00002  -0.00003  -0.00002   0.00003
 499  H 5   px      -0.00009   0.00000   0.00000   0.00000  -0.00001   0.00000
 500  H 5   py      -0.00013   0.00000   0.00000  -0.00000   0.00000  -0.00000
 501  H 5   pz       0.00005  -0.00000  -0.00000  -0.00000  -0.00000  -0.00000
 502  H 5   px      -0.00013  -0.00000  -0.00001  -0.00001   0.00002  -0.00001
 503  H 5   py      -0.00015  -0.00000  -0.00002   0.00000  -0.00001   0.00000
 504  H 5   pz       0.00004   0.00000   0.00001   0.00001   0.00001   0.00000
 505  H 5   px       0.00339   0.00002   0.00011   0.00006  -0.00011   0.00004
 506  H 5   py       0.00491   0.00003   0.00016   0.00007  -0.00022   0.00002
 507  H 5   pz      -0.00186  -0.00001  -0.00009  -0.00007   0.00010  -0.00002
 508  H 5   px       0.00128   0.00006   0.00026  -0.00007  -0.00024   0.00002
 509  H 5   py       0.00176   0.00006   0.00033  -0.00001  -0.00023  -0.00002
 510  H 5   pz      -0.00067   0.00000  -0.00012  -0.00008   0.00006   0.00004
 511  H 5   d 1     -0.00020   0.00000  -0.00000  -0.00000  -0.00000  -0.00000
 512  H 5   d 2      0.00010   0.00000   0.00000   0.00000  -0.00001  -0.00000
 513  H 5   d 3      0.00010  -0.00000  -0.00000   0.00000   0.00000  -0.00000
 514  H 5   d 4      0.00007   0.00000   0.00000   0.00000   0.00001   0.00000
 515  H 5   d 5      0.00007   0.00000   0.00000  -0.00000  -0.00000  -0.00000
 516  H 5   d 1      0.00164   0.00000   0.00001   0.00002  -0.00000   0.00001
 517  H 5   d 2     -0.00089  -0.00000  -0.00002  -0.00001   0.00004  -0.00000
 518  H 5   d 3     -0.00082   0.00000  -0.00000  -0.00001  -0.00001  -0.00000
 519  H 5   d 4     -0.00062  -0.00000  -0.00001  -0.00001  -0.00002  -0.00001
 520  H 5   d 5     -0.00060  -0.00000  -0.00001  -0.00001   0.00004   0.00000
 521  H 5   d 1      0.00200   0.00002   0.00008  -0.00001  -0.00002   0.00001
 522  H 5   d 2     -0.00109  -0.00000  -0.00004  -0.00004  -0.00000   0.00001
 523  H 5   d 3     -0.00094  -0.00001  -0.00003   0.00005  -0.00003  -0.00000
 524  H 5   d 4     -0.00078  -0.00000  -0.00004  -0.00003   0.00002  -0.00000
 525  H 5   d 5     -0.00079  -0.00000  -0.00002  -0.00002   0.00002   0.00001
 526  H 5   f 1      0.00005  -0.00000   0.00000   0.00000  -0.00000   0.00000
 527  H 5   f 2     -0.00013   0.00000  -0.00000  -0.00000   0.00000  -0.00000
 528  H 5   f 3     -0.00007   0.00000   0.00000  -0.00000   0.00001  -0.00000
 529  H 5   f 4      0.00009  -0.00000   0.00000   0.00000  -0.00000   0.00000
 530  H 5   f 5     -0.00005   0.00000  -0.00000  -0.00000   0.00000  -0.00000
 531  H 5   f 6      0.00004   0.00000   0.00000   0.00000  -0.00001   0.00000
 532  H 5   f 7     -0.00017   0.00000  -0.00000  -0.00000  -0.00000  -0.00000
 533  H 5   f 1      0.00024   0.00000   0.00000  -0.00001   0.00003   0.00001
 534  H 5   f 2     -0.00070  -0.00000  -0.00001  -0.00001  -0.00001  -0.00000
 535  H 5   f 3     -0.00037  -0.00000  -0.00000   0.00001  -0.00003  -0.00000
 536  H 5   f 4      0.00055   0.00000   0.00001  -0.00000   0.00001  -0.00000
 537  H 5   f 5     -0.00027  -0.00000  -0.00000   0.00002  -0.00001  -0.00000
 538  H 5   f 6      0.00029   0.00000   0.00000   0.00000  -0.00001  -0.00000
 539  H 5   f 7     -0.00094  -0.00000  -0.00001  -0.00001   0.00001  -0.00000
 540  H 5   g 1     -0.00009  -0.00000  -0.00000  -0.00000   0.00000   0.00000
 541  H 5   g 2     -0.00003  -0.00000  -0.00000  -0.00000  -0.00000  -0.00000
 542  H 5   g 3     -0.00005  -0.00000  -0.00000   0.00000  -0.00000  -0.00000
 543  H 5   g 4      0.00011   0.00000   0.00000  -0.00000   0.00000   0.00000
 544  H 5   g 5      0.00002   0.00000   0.00000  -0.00000  -0.00000   0.00000
 545  H 5   g 6      0.00007   0.00000   0.00000  -0.00000   0.00000   0.00000
 546  H 5   g 7      0.00001  -0.00000  -0.00000   0.00000   0.00000   0.00000
 547  H 5   g 8      0.00013   0.00000   0.00000   0.00000  -0.00000   0.00000
 548  H 5   g 9     -0.00011  -0.00000  -0.00000   0.00000  -0.00000  -0.00000
 549  H 6   s       -0.00010  -0.00000   0.00000  -0.00000  -0.00001   0.00000
 550  H 6   s       -0.00167   0.00001  -0.00003  -0.00001   0.00007  -0.00001
 551  H 6   s        0.00566  -0.00016   0.00015   0.00035   0.00057  -0.00023
 552  H 6   s        0.00092  -0.00029  -0.00015   0.00042   0.00057  -0.00048
 553  H 6   s        0.00009  -0.00001  -0.00004   0.00003  -0.00002  -0.00000
 554  H 6   px      -0.00010   0.00000   0.00000  -0.00000  -0.00001   0.00000
 555  H 6   py       0.00008   0.00000   0.00000  -0.00000  -0.00001   0.00000
 556  H 6   pz      -0.00008  -0.00000   0.00000   0.00000  -0.00000   0.00000
 557  H 6   px      -0.00021   0.00000  -0.00001   0.00000   0.00006  -0.00000
 558  H 6   py       0.00011  -0.00000  -0.00000   0.00000   0.00003   0.00000
 559  H 6   pz      -0.00009   0.00000  -0.00000  -0.00000   0.00000  -0.00001
 560  H 6   px       0.00397  -0.00005   0.00010   0.00015  -0.00008  -0.00006
 561  H 6   py      -0.00291   0.00004  -0.00001  -0.00007  -0.00029   0.00005
 562  H 6   pz       0.00256  -0.00003   0.00001   0.00005   0.00017   0.00001
 563  H 6   px       0.00119  -0.00009  -0.00009   0.00012   0.00007  -0.00019
 564  H 6   py      -0.00089   0.00006  -0.00010  -0.00007  -0.00022   0.00010
 565  H 6   pz       0.00078  -0.00006   0.00002   0.00008   0.00009  -0.00001
 566  H 6   d 1      0.00018  -0.00000  -0.00000   0.00000  -0.00000   0.00000
 567  H 6   d 2      0.00011  -0.00000   0.00000  -0.00000   0.00000   0.00000
 568  H 6   d 3      0.00004   0.00000   0.00000   0.00000  -0.00001  -0.00000
 569  H 6   d 4     -0.00016  -0.00000   0.00000   0.00000   0.00001   0.00000
 570  H 6   d 5     -0.00006   0.00000  -0.00000  -0.00001   0.00000  -0.00000
 571  H 6   d 1     -0.00135   0.00000  -0.00000  -0.00002  -0.00001  -0.00000
 572  H 6   d 2     -0.00089   0.00000  -0.00000   0.00000  -0.00004  -0.00000
 573  H 6   d 3     -0.00035  -0.00000  -0.00001  -0.00001   0.00003   0.00001
 574  H 6   d 4      0.00121  -0.00000   0.00000  -0.00000  -0.00000  -0.00001
 575  H 6   d 5      0.00044  -0.00000   0.00002   0.00003  -0.00003   0.00001
 576  H 6   d 1     -0.00164   0.00002  -0.00004  -0.00001  -0.00008   0.00004
 577  H 6   d 2     -0.00104   0.00001  -0.00001  -0.00001  -0.00008  -0.00002
 578  H 6   d 3     -0.00043   0.00001  -0.00002  -0.00002   0.00005   0.00004
 579  H 6   d 4      0.00143  -0.00002   0.00002   0.00006  -0.00005   0.00004
 580  H 6   d 5      0.00046  -0.00001  -0.00001   0.00000  -0.00015  -0.00004
 581  H 6   f 1     -0.00013   0.00000  -0.00000  -0.00000   0.00001  -0.00000
 582  H 6   f 2     -0.00017   0.00000   0.00000   0.00000  -0.00000   0.00000
 583  H 6   f 3     -0.00001  -0.00000   0.00000   0.00000   0.00000   0.00000
 584  H 6   f 4     -0.00010   0.00000   0.00000   0.00000  -0.00000   0.00000
 585  H 6   f 5      0.00001  -0.00000   0.00000   0.00000   0.00000   0.00000
 586  H 6   f 6      0.00006   0.00000   0.00000  -0.00000  -0.00000  -0.00000
 587  H 6   f 7     -0.00004  -0.00000   0.00000   0.00000  -0.00000   0.00000
 588  H 6   f 1     -0.00070   0.00000  -0.00001   0.00000  -0.00001   0.00001
 589  H 6   f 2     -0.00094   0.00000  -0.00001  -0.00001  -0.00002  -0.00001
 590  H 6   f 3     -0.00004   0.00000   0.00001   0.00000  -0.00003  -0.00001
 591  H 6   f 4     -0.00064   0.00000  -0.00001  -0.00001   0.00003  -0.00001
 592  H 6   f 5      0.00005   0.00000  -0.00001  -0.00000   0.00001   0.00001
 593  H 6   f 6      0.00029  -0.00000   0.00000   0.00002  -0.00004   0.00000
 594  H 6   f 7     -0.00024   0.00000   0.00000  -0.00001  -0.00004  -0.00000
 595  H 6   g 1     -0.00006   0.00000  -0.00000   0.00000   0.00000   0.00000
 596  H 6   g 2     -0.00016   0.00000  -0.00000  -0.00000   0.00000  -0.00000
 597  H 6   g 3     -0.00006   0.00000   0.00000  -0.00000  -0.00000  -0.00000
 598  H 6   g 4      0.00007  -0.00000   0.00000   0.00000  -0.00000   0.00000
 599  H 6   g 5     -0.00005   0.00000   0.00000  -0.00000   0.00000  -0.00000
 600  H 6   g 6     -0.00010   0.00000  -0.00000  -0.00000   0.00000  -0.00000
 601  H 6   g 7      0.00001  -0.00000  -0.00000   0.00000  -0.00000   0.00000
 602  H 6   g 8     -0.00005  -0.00000   0.00000   0.00000  -0.00001  -0.00000
 603  H 6   g 9     -0.00009   0.00000  -0.00000  -0.00000  -0.00000   0.00000
 604  O 4   s        0.00000  -0.00000  -0.00001  -0.00001  -0.00000   0.00001
 605  O 4   s        0.00000  -0.00000  -0.00001  -0.00002  -0.00000   0.00001
 606  O 4   s        0.00000  -0.00000  -0.00001  -0.00002  -0.00000   0.00002
 607  O 4   s        0.00001   0.00001  -0.00008   0.00003   0.00000  -0.00012
 608  O 4   s       -0.00007  -0.00006   0.00072   0.00014   0.00003   0.00027
 609  O 4   s       -0.00007  -0.00003   0.00072  -0.00043  -0.00001   0.00077
 610  O 4   px       0.00000   0.00000  -0.00000  -0.00000  -0.00000  -0.00000
 611  O 4   py       0.00000   0.00000   0.00000   0.00000   0.00000  -0.00000
 612  O 4   pz      -0.00000  -0.00000   0.00000   0.00001  -0.00000  -0.00000
 613  O 4   px      -0.00000  -0.00000   0.00001   0.00001   0.00000   0.00002
 614  O 4   py       0.00000  -0.00000  -0.00001  -0.00001  -0.00000  -0.00001
 615  O 4   pz       0.00000   0.00000  -0.00002  -0.00003   0.00000  -0.00000
 616  O 4   px       0.00000   0.00002  -0.00006   0.00004  -0.00002  -0.00000
 617  O 4   py      -0.00001  -0.00000   0.00009  -0.00002   0.00001   0.00001
 618  O 4   pz      -0.00002  -0.00000   0.00011   0.00017  -0.00000   0.00005
 619  O 4   px      -0.00001  -0.00002  -0.00015  -0.00011   0.00001  -0.00046
 620  O 4   py      -0.00003  -0.00001   0.00024   0.00002  -0.00002   0.00032
 621  O 4   pz      -0.00007  -0.00001   0.00037  -0.00038   0.00002   0.00018
 622  O 4   px      -0.00002   0.00002   0.00004  -0.00005   0.00000  -0.00007
 623  O 4   py       0.00001  -0.00001  -0.00000   0.00000  -0.00000   0.00004
 624  O 4   pz      -0.00002  -0.00000   0.00009  -0.00010   0.00001   0.00013
 625  O 4   d 1      0.00000  -0.00000   0.00000  -0.00000   0.00000  -0.00000
 626  O 4   d 2     -0.00000  -0.00000   0.00000   0.00000  -0.00000   0.00000
 627  O 4   d 3     -0.00000   0.00000   0.00000  -0.00000   0.00000  -0.00000
 628  O 4   d 4      0.00000  -0.00000  -0.00000   0.00000  -0.00000  -0.00000
 629  O 4   d 5     -0.00000   0.00000  -0.00000   0.00000   0.00000  -0.00000
 630  O 4   d 1     -0.00000   0.00000   0.00000   0.00001  -0.00000   0.00001
 631  O 4   d 2      0.00000   0.00000  -0.00001   0.00000   0.00000  -0.00000
 632  O 4   d 3      0.00000  -0.00000  -0.00001   0.00001  -0.00000   0.00000
 633  O 4   d 4     -0.00000   0.00000   0.00000  -0.00001   0.00000   0.00001
 634  O 4   d 5     -0.00000  -0.00000   0.00000  -0.00000  -0.00000   0.00000
 635  O 4   d 1      0.00000   0.00000  -0.00003  -0.00002  -0.00000  -0.00004
 636  O 4   d 2     -0.00001   0.00000   0.00005  -0.00003  -0.00000   0.00002
 637  O 4   d 3     -0.00001   0.00000   0.00005   0.00003   0.00000   0.00002
 638  O 4   d 4      0.00000  -0.00000   0.00002  -0.00000  -0.00000  -0.00003
 639  O 4   d 5      0.00000  -0.00000   0.00001  -0.00001   0.00000  -0.00003
 640  O 4   d 1     -0.00001  -0.00001  -0.00002  -0.00004   0.00001  -0.00017
 641  O 4   d 2     -0.00001  -0.00001   0.00008  -0.00005  -0.00000   0.00005
 642  O 4   d 3     -0.00002   0.00000   0.00009  -0.00013   0.00002   0.00004
 643  O 4   d 4      0.00001  -0.00001  -0.00002   0.00009  -0.00000  -0.00015
 644  O 4   d 5      0.00001  -0.00001  -0.00001   0.00006  -0.00000   0.00000
 645  O 4   f 1     -0.00000  -0.00000  -0.00000   0.00000  -0.00000   0.00000
 646  O 4   f 2     -0.00000  -0.00000  -0.00000   0.00000   0.00000  -0.00000
 647  O 4   f 3      0.00000  -0.00000  -0.00000   0.00000   0.00000   0.00000
[...]
1372  H 14  d 3     -0.00011  -0.00011
1373  H 14  d 4     -0.00021   0.00005
1374  H 14  d 5     -0.00034  -0.00022
1375  H 14  d 1      0.00113   0.00078
1376  H 14  d 2      0.00121  -0.00040
1377  H 14  d 3      0.00051   0.00034
1378  H 14  d 4      0.00345   0.00064
1379  H 14  d 5      0.00280   0.00146
1380  H 14  d 1      0.01249  -0.00257
1381  H 14  d 2      0.00878  -0.00283
1382  H 14  d 3     -0.00612  -0.00827
1383  H 14  d 4      0.01281  -0.00332
1384  H 14  d 5      0.00273  -0.00168
1385  H 14  f 1      0.00005  -0.00006
1386  H 14  f 2      0.00005  -0.00005
1387  H 14  f 3      0.00001  -0.00007
1388  H 14  f 4      0.00002   0.00005
1389  H 14  f 5     -0.00023  -0.00021
1390  H 14  f 6     -0.00020  -0.00025
1391  H 14  f 7     -0.00011  -0.00002
1392  H 14  f 1     -0.00207  -0.00011
1393  H 14  f 2     -0.00307   0.00033
1394  H 14  f 3     -0.00071   0.00089
1395  H 14  f 4      0.00235   0.00066
1396  H 14  f 5     -0.00044   0.00144
1397  H 14  f 6     -0.00133   0.00041
1398  H 14  f 7      0.00009  -0.00017
1399  H 14  g 1      0.00008   0.00002
1400  H 14  g 2      0.00020   0.00004
1401  H 14  g 3      0.00013  -0.00004
1402  H 14  g 4     -0.00006  -0.00006
1403  H 14  g 5     -0.00019  -0.00003
1404  H 14  g 6     -0.00010  -0.00009
1405  H 14  g 7      0.00008   0.00002
1406  H 14  g 8      0.00002   0.00003
1407  H 14  g 9     -0.00003  -0.00000
1408  O 8   s        0.00167  -0.00196
1409  O 8   s       -0.05577   0.04818
1410  O 8   s       -0.00153   0.00051
1411  O 8   s       -0.05659   0.05322
1412  O 8   s       -0.10275   0.04002
1413  O 8   s       -0.43669   0.36320
1414  O 8   px      -0.01867   0.02740
1415  O 8   py       0.01376  -0.01695
1416  O 8   pz      -0.00404   0.01888
1417  O 8   px      -0.02839   0.04549
1418  O 8   py       0.02041  -0.02599
1419  O 8   pz      -0.00550   0.03070
1420  O 8   px      -0.05173   0.05847
1421  O 8   py       0.03418  -0.04015
1422  O 8   pz      -0.01336   0.04410
1423  O 8   px      -0.08183  -0.01394
1424  O 8   py       0.11554  -0.16460
1425  O 8   pz      -0.00179  -0.01618
1426  O 8   px      -0.14756   0.18521
1427  O 8   py       0.00789   0.07143
1428  O 8   pz      -0.10456   0.13820
1429  O 8   d 1      0.00001   0.00003
1430  O 8   d 2     -0.00016   0.00015
1431  O 8   d 3      0.00013  -0.00034
1432  O 8   d 4     -0.00021   0.00035
1433  O 8   d 5      0.00006  -0.00026
1434  O 8   d 1      0.00038  -0.00084
1435  O 8   d 2      0.00069  -0.00148
1436  O 8   d 3     -0.00057   0.00177
1437  O 8   d 4      0.00206  -0.00246
1438  O 8   d 5      0.00023   0.00085
1439  O 8   d 1      0.00339   0.00322
1440  O 8   d 2     -0.00279   0.00560
1441  O 8   d 3      0.00461  -0.00738
1442  O 8   d 4     -0.00914   0.00716
1443  O 8   d 5     -0.00090  -0.00985
1444  O 8   d 1      0.02961  -0.01464
1445  O 8   d 2      0.00490  -0.00778
1446  O 8   d 3      0.01633  -0.00393
1447  O 8   d 4     -0.02358   0.01522
1448  O 8   d 5     -0.00366  -0.01466
1449  O 8   f 1     -0.00013   0.00015
1450  O 8   f 2     -0.00014   0.00024
1451  O 8   f 3     -0.00005   0.00005
1452  O 8   f 4      0.00006  -0.00026
1453  O 8   f 5     -0.00001   0.00004
1454  O 8   f 6      0.00004   0.00004
1455  O 8   f 7      0.00013  -0.00012
1456  O 8   f 1      0.00065  -0.00041
1457  O 8   f 2      0.00086  -0.00121
1458  O 8   f 3      0.00015  -0.00001
1459  O 8   f 4     -0.00008   0.00118
1460  O 8   f 5      0.00011  -0.00003
1461  O 8   f 6     -0.00068   0.00017
1462  O 8   f 7     -0.00070   0.00070
1463  O 8   f 1      0.00820  -0.01101
1464  O 8   f 2      0.01423  -0.02020
1465  O 8   f 3     -0.00144   0.00160
1466  O 8   f 4      0.00377  -0.00206
1467  O 8   f 5      0.00290  -0.00080
1468  O 8   f 6     -0.00899   0.00384
1469  O 8   f 7     -0.00309  -0.00091
1470  O 8   g 1     -0.00001  -0.00003
1471  O 8   g 2     -0.00003   0.00007
1472  O 8   g 3      0.00006  -0.00006
1473  O 8   g 4      0.00004  -0.00010
1474  O 8   g 5      0.00003   0.00001
1475  O 8   g 6     -0.00007   0.00007
1476  O 8   g 7     -0.00003   0.00002
1477  O 8   g 8     -0.00013   0.00024
1478  O 8   g 9     -0.00012   0.00026
1479  O 8   g 1      0.00196  -0.00194
1480  O 8   g 2      0.00218  -0.00243
1481  O 8   g 3     -0.00019   0.00004
1482  O 8   g 4     -0.00002   0.00021
1483  O 8   g 5      0.00038  -0.00059
1484  O 8   g 6      0.00183  -0.00170
1485  O 8   g 7      0.00016  -0.00021
1486  O 8   g 8      0.00120  -0.00297
1487  O 8   g 9      0.00079  -0.00254
1488  O 8   h 1      0.00012  -0.00004
1489  O 8   h 2      0.00013  -0.00017
1490  O 8   h 3      0.00010  -0.00015
1491  O 8   h 4     -0.00026   0.00031
1492  O 8   h 5     -0.00016   0.00022
1493  O 8   h 6     -0.00004   0.00006
1494  O 8   h 7      0.00008  -0.00007
1495  O 8   h 8      0.00022  -0.00016
1496  O 8   h 9     -0.00006   0.00003
1497  O 8   h10      0.00008  -0.00023
1498  O 8   h11      0.00020  -0.00034
1499  H 15  s        0.00310  -0.00274
1500  H 15  s        0.00461  -0.00291
1501  H 15  s        0.09829  -0.13717
1502  H 15  s       -0.05519  -0.00186
1503  H 15  s        0.06600   0.23644
1504  H 15  px      -0.00059   0.00027
1505  H 15  py      -0.00100   0.00068
1506  H 15  pz      -0.00024   0.00013
1507  H 15  px       0.00085   0.00011
1508  H 15  py       0.00229  -0.00204
1509  H 15  pz      -0.00010   0.00058
1510  H 15  px      -0.00422  -0.00355
1511  H 15  py       0.00562  -0.03059
1512  H 15  pz       0.00005  -0.00872
1513  H 15  px       0.05289  -0.01878
1514  H 15  py       0.00436  -0.03044
1515  H 15  pz       0.00347  -0.00905
1516  H 15  d 1     -0.00008   0.00040
1517  H 15  d 2     -0.00013   0.00002
1518  H 15  d 3      0.00025  -0.00007
1519  H 15  d 4     -0.00019  -0.00014
1520  H 15  d 5     -0.00025   0.00023
1521  H 15  d 1      0.00098  -0.00334
1522  H 15  d 2      0.00152  -0.00234
1523  H 15  d 3     -0.00230   0.00308
1524  H 15  d 4      0.00081   0.00063
1525  H 15  d 5     -0.00138   0.00404
1526  H 15  d 1     -0.00657   0.01541
1527  H 15  d 2     -0.01118   0.00602
1528  H 15  d 3      0.00136   0.00225
1529  H 15  d 4     -0.00281  -0.00037
1530  H 15  d 5      0.00166   0.00685
1531  H 15  f 1     -0.00037   0.00044
1532  H 15  f 2      0.00006  -0.00016
1533  H 15  f 3     -0.00003   0.00016
1534  H 15  f 4     -0.00018   0.00036
1535  H 15  f 5     -0.00003   0.00015
1536  H 15  f 6     -0.00045   0.00062
1537  H 15  f 7     -0.00041   0.00078
1538  H 15  f 1      0.00079   0.00158
1539  H 15  f 2     -0.00089   0.00161
1540  H 15  f 3     -0.00117   0.00133
1541  H 15  f 4      0.00067  -0.00060
1542  H 15  f 5     -0.00015  -0.00051
1543  H 15  f 6      0.00280  -0.00195
1544  H 15  f 7      0.00188  -0.00328
1545  H 15  g 1     -0.00003   0.00005
1546  H 15  g 2      0.00005   0.00007
1547  H 15  g 3     -0.00008   0.00007
1548  H 15  g 4      0.00002   0.00004
1549  H 15  g 5      0.00005  -0.00002
1550  H 15  g 6      0.00004  -0.00007
1551  H 15  g 7      0.00007  -0.00006
1552  H 15  g 8      0.00013  -0.00017
1553  H 15  g 9      0.00006  -0.00023
1554  H 16  s        0.00551  -0.00637
1555  H 16  s        0.00195  -0.00662
1556  H 16  s        0.19637  -0.15345
1557  H 16  s       -0.05146   0.25990
1558  H 16  s        0.78795  -1.20878
1559  H 16  px       0.00204  -0.00272
1560  H 16  py      -0.00095   0.00140
1561  H 16  pz       0.00100  -0.00136
1562  H 16  px      -0.00308   0.00458
1563  H 16  py       0.00280  -0.00507
1564  H 16  pz      -0.00051   0.00217
1565  H 16  px      -0.01191  -0.01732
1566  H 16  py      -0.01016   0.03793
1567  H 16  pz      -0.01202  -0.00854
1568  H 16  px       0.00232  -0.06374
1569  H 16  py      -0.00557   0.03990
1570  H 16  pz       0.00748  -0.05406
1571  H 16  d 1     -0.00003   0.00033
1572  H 16  d 2     -0.00005   0.00014
1573  H 16  d 3      0.00002   0.00012
1574  H 16  d 4     -0.00064   0.00047
1575  H 16  d 5     -0.00036   0.00064
1576  H 16  d 1     -0.00108  -0.00253
1577  H 16  d 2     -0.00048  -0.00121
1578  H 16  d 3     -0.00074  -0.00049
1579  H 16  d 4      0.00600  -0.00397
1580  H 16  d 5      0.00417  -0.00468
1581  H 16  d 1      0.01133  -0.02776
1582  H 16  d 2      0.00426  -0.01673
1583  H 16  d 3      0.00463  -0.00425
1584  H 16  d 4     -0.00522   0.01788
1585  H 16  d 5     -0.00157   0.00429
1586  H 16  f 1      0.00037  -0.00011
1587  H 16  f 2      0.00027  -0.00008
1588  H 16  f 3     -0.00003   0.00005
1589  H 16  f 4      0.00056  -0.00051
1590  H 16  f 5     -0.00011   0.00011
1591  H 16  f 6     -0.00058   0.00058
1592  H 16  f 7     -0.00022   0.00013
1593  H 16  f 1     -0.00204   0.00453
1594  H 16  f 2     -0.00136   0.00468
1595  H 16  f 3      0.00054  -0.00030
1596  H 16  f 4     -0.00140   0.00301
1597  H 16  f 5     -0.00061   0.00000
1598  H 16  f 6      0.00021  -0.00082
1599  H 16  f 7     -0.00099   0.00303
1600  H 16  g 1      0.00003  -0.00021
1601  H 16  g 2      0.00001  -0.00029
1602  H 16  g 3     -0.00004  -0.00008
1603  H 16  g 4     -0.00000   0.00007
1604  H 16  g 5     -0.00006  -0.00002
1605  H 16  g 6     -0.00002  -0.00004
1606  H 16  g 7      0.00007  -0.00004
1607  H 16  g 8      0.00014  -0.00029
1608  H 16  g 9      0.00011  -0.00031
1609  O 9   s       -0.00028   0.00015
1610  O 9   s        0.02219  -0.00946
1611  O 9   s        0.00070   0.00023
1612  O 9   s        0.03477  -0.02869
1613  O 9   s       -0.05212   0.11165
1614  O 9   s       -0.33017   0.27677
1615  O 9   px       0.01246   0.00039
1616  O 9   py      -0.00721   0.00604
1617  O 9   pz      -0.00493   0.00733
1618  O 9   px       0.02169  -0.00070
1619  O 9   py      -0.01188   0.01000
1620  O 9   pz      -0.00835   0.01319
1621  O 9   px       0.02088   0.00973
1622  O 9   py      -0.01498   0.01015
1623  O 9   pz      -0.00736   0.00775
1624  O 9   px      -0.01825   0.03898
1625  O 9   py       0.04020  -0.08009
1626  O 9   pz       0.06543  -0.07112
1627  O 9   px      -0.01550   0.03007
1628  O 9   py      -0.07139  -0.00867
1629  O 9   pz       0.09589  -0.01741
1630  O 9   d 1     -0.00002   0.00002
1631  O 9   d 2     -0.00012   0.00008
1632  O 9   d 3     -0.00007   0.00005
1633  O 9   d 4     -0.00000   0.00004
1634  O 9   d 5     -0.00006  -0.00006
1635  O 9   d 1     -0.00045  -0.00013
1636  O 9   d 2      0.00046  -0.00081
1637  O 9   d 3      0.00015  -0.00047
1638  O 9   d 4     -0.00060  -0.00027
1639  O 9   d 5      0.00033   0.00038
1640  O 9   d 1     -0.00044   0.00066
1641  O 9   d 2     -0.00528   0.01018
1642  O 9   d 3     -0.00179   0.00336
1643  O 9   d 4      0.00017   0.00223
1644  O 9   d 5     -0.00243  -0.00266
1645  O 9   d 1      0.00189   0.00461
1646  O 9   d 2     -0.01957   0.04697
1647  O 9   d 3     -0.01303   0.02213
1648  O 9   d 4      0.00660   0.00019
1649  O 9   d 5      0.01366  -0.00963
1650  O 9   f 1      0.00000  -0.00004
1651  O 9   f 2     -0.00000  -0.00005
1652  O 9   f 3      0.00005   0.00004
1653  O 9   f 4     -0.00001  -0.00000
1654  O 9   f 5     -0.00005   0.00004
1655  O 9   f 6     -0.00001  -0.00011
1656  O 9   f 7      0.00003  -0.00010
1657  O 9   f 1     -0.00020   0.00044
1658  O 9   f 2     -0.00001   0.00058
1659  O 9   f 3     -0.00024  -0.00049
1660  O 9   f 4      0.00027  -0.00016
1661  O 9   f 5      0.00024  -0.00006
1662  O 9   f 6     -0.00000   0.00100
1663  O 9   f 7     -0.00025   0.00056
1664  O 9   f 1     -0.00023   0.00497
1665  O 9   f 2     -0.00153   0.00313
1666  O 9   f 3      0.00268  -0.00539
1667  O 9   f 4      0.00025  -0.00307
1668  O 9   f 5     -0.00240   0.00262
1669  O 9   f 6     -0.00122   0.00621
1670  O 9   f 7      0.00131  -0.00324
1671  O 9   g 1      0.00001   0.00005
1672  O 9   g 2     -0.00006   0.00004
1673  O 9   g 3     -0.00004   0.00001
1674  O 9   g 4      0.00002  -0.00001
1675  O 9   g 5     -0.00002   0.00003
1676  O 9   g 6      0.00001  -0.00002
1677  O 9   g 7     -0.00001   0.00005
1678  O 9   g 8      0.00002  -0.00001
1679  O 9   g 9     -0.00002   0.00002
1680  O 9   g 1      0.00003   0.00016
1681  O 9   g 2      0.00021  -0.00010
1682  O 9   g 3     -0.00017   0.00016
1683  O 9   g 4      0.00005   0.00011
1684  O 9   g 5     -0.00008  -0.00034
1685  O 9   g 6     -0.00005  -0.00028
1686  O 9   g 7     -0.00025  -0.00048
1687  O 9   g 8      0.00012   0.00021
1688  O 9   g 9      0.00008   0.00003
1689  O 9   h 1      0.00004   0.00002
1690  O 9   h 2     -0.00001   0.00009
1691  O 9   h 3      0.00001   0.00007
1692  O 9   h 4      0.00005  -0.00006
1693  O 9   h 5     -0.00000  -0.00005
1694  O 9   h 6      0.00007   0.00001
1695  O 9   h 7     -0.00000  -0.00001
1696  O 9   h 8      0.00005  -0.00000
1697  O 9   h 9     -0.00009   0.00008
1698  O 9   h10     -0.00000  -0.00005
1699  O 9   h11     -0.00000   0.00000
1700  H 17  s       -0.00250   0.00020
1701  H 17  s       -0.00932   0.00537
1702  H 17  s       -0.00911  -0.04369
1703  H 17  s        0.09624   0.03554
1704  H 17  s       -0.15735  -0.22888
1705  H 17  px      -0.00040  -0.00051
1706  H 17  py      -0.00008  -0.00018
1707  H 17  pz      -0.00006  -0.00016
1708  H 17  px      -0.00006   0.00155
1709  H 17  py      -0.00040   0.00068
1710  H 17  pz      -0.00075   0.00060
1711  H 17  px      -0.01362   0.01039
1712  H 17  py      -0.00281  -0.00079
1713  H 17  pz      -0.00241   0.00069
1714  H 17  px      -0.05032   0.02192
1715  H 17  py       0.00481  -0.01033
1716  H 17  pz      -0.02100  -0.01997
1717  H 17  d 1     -0.00005   0.00013
1718  H 17  d 2     -0.00015  -0.00002
1719  H 17  d 3      0.00013  -0.00007
1720  H 17  d 4      0.00002   0.00021
1721  H 17  d 5      0.00007   0.00015
1722  H 17  d 1      0.00108  -0.00137
1723  H 17  d 2      0.00108  -0.00033
1724  H 17  d 3     -0.00072   0.00082
1725  H 17  d 4      0.00068  -0.00206
1726  H 17  d 5      0.00010  -0.00176
1727  H 17  d 1      0.00241   0.00208
1728  H 17  d 2     -0.00212   0.00308
1729  H 17  d 3     -0.00334   0.00580
1730  H 17  d 4      0.00669   0.00395
1731  H 17  d 5      0.00950  -0.00770
1732  H 17  f 1     -0.00005   0.00007
1733  H 17  f 2     -0.00002   0.00012
1734  H 17  f 3     -0.00006   0.00002
1735  H 17  f 4     -0.00004  -0.00010
1736  H 17  f 5      0.00000   0.00007
1737  H 17  f 6      0.00005   0.00008
1738  H 17  f 7      0.00007  -0.00001
1739  H 17  f 1     -0.00088   0.00040
1740  H 17  f 2     -0.00060  -0.00068
1741  H 17  f 3      0.00044  -0.00053
1742  H 17  f 4      0.00111  -0.00014
1743  H 17  f 5      0.00030  -0.00170
1744  H 17  f 6     -0.00132   0.00051
1745  H 17  f 7     -0.00103   0.00163
1746  H 17  g 1      0.00007  -0.00004
1747  H 17  g 2      0.00006   0.00001
1748  H 17  g 3     -0.00000   0.00007
1749  H 17  g 4     -0.00003   0.00002
1750  H 17  g 5     -0.00003  -0.00009
1751  H 17  g 6     -0.00007   0.00007
1752  H 17  g 7      0.00001   0.00007
1753  H 17  g 8      0.00006  -0.00007
1754  H 17  g 9      0.00002  -0.00010
1755  H 18  s       -0.00113   0.00085
1756  H 18  s       -0.00288   0.00403
1757  H 18  s        0.04479  -0.10969
1758  H 18  s        0.42029  -0.36113
1759  H 18  s       -0.43297   0.39758
1760  H 18  px      -0.00039   0.00021
1761  H 18  py       0.00075  -0.00062
1762  H 18  pz       0.00114  -0.00078
1763  H 18  px       0.00152  -0.00060
1764  H 18  py      -0.00164   0.00176
1765  H 18  pz      -0.00281   0.00234
1766  H 18  px      -0.01364   0.02506
1767  H 18  py       0.02614  -0.03645
1768  H 18  pz       0.03508  -0.04423
1769  H 18  px      -0.03843   0.05282
1770  H 18  py       0.10519  -0.07874
1771  H 18  pz       0.08470  -0.09558
1772  H 18  d 1     -0.00004  -0.00011
1773  H 18  d 2      0.00012  -0.00014
1774  H 18  d 3     -0.00003   0.00000
1775  H 18  d 4     -0.00005  -0.00009
1776  H 18  d 5     -0.00019  -0.00012
1777  H 18  d 1      0.00003   0.00220
1778  H 18  d 2      0.00070  -0.00183
1779  H 18  d 3      0.00092  -0.00095
1780  H 18  d 4     -0.00010   0.00246
1781  H 18  d 5      0.00031   0.00109
1782  H 18  d 1     -0.00820   0.01064
1783  H 18  d 2      0.01941  -0.01914
1784  H 18  d 3      0.00420  -0.00566
1785  H 18  d 4     -0.00825   0.01368
1786  H 18  d 5     -0.01100   0.00095
1787  H 18  f 1      0.00006   0.00004
1788  H 18  f 2     -0.00001   0.00021
1789  H 18  f 3      0.00005  -0.00013
1790  H 18  f 4      0.00007  -0.00000
1791  H 18  f 5     -0.00003   0.00008
1792  H 18  f 6      0.00002   0.00009
1793  H 18  f 7     -0.00008  -0.00007
1794  H 18  f 1     -0.00082  -0.00089
1795  H 18  f 2     -0.00088   0.00225
1796  H 18  f 3      0.00130  -0.00122
1797  H 18  f 4     -0.00069   0.00083
1798  H 18  f 5     -0.00032   0.00154
1799  H 18  f 6     -0.00156  -0.00004
1800  H 18  f 7      0.00093  -0.00109
1801  H 18  g 1      0.00003  -0.00001
1802  H 18  g 2     -0.00005  -0.00012
1803  H 18  g 3     -0.00001   0.00015
1804  H 18  g 4      0.00001   0.00001
1805  H 18  g 5     -0.00005   0.00009
1806  H 18  g 6      0.00001   0.00002
1807  H 18  g 7     -0.00007  -0.00003
1808  H 18  g 8      0.00005  -0.00010
1809  H 18  g 9      0.00003   0.00007

          Ground-State Mulliken Net Atomic Charges

     Atom                 Charge (a.u.)
  ----------------------------------------
      1 O                    -0.813533
      2 H                     0.384646
      3 H                     0.406339
      4 O                    -0.683123
      5 H                     0.286559
      6 H                     0.377132
      7 O                    -0.585578
      8 H                     0.294336
      9 H                     0.311188
     10 O                    -0.688662
     11 H                     0.327557
     12 H                     0.353683
     13 O                    -0.598119
     14 H                     0.339446
     15 H                     0.238458
     16 O                    -0.644946
     17 H                     0.275960
     18 H                     0.366608
     19 O                    -0.595602
     20 H                     0.304877
     21 H                     0.306462
     22 O                    -0.663333
     23 H                     0.355812
     24 H                     0.297632
     25 O                    -0.628035
     26 H                     0.332321
     27 H                     0.341916
  ----------------------------------------
  Sum of atomic charges =     0.000000

 -----------------------------------------------------------------
                    Cartesian Multipole Moments
 -----------------------------------------------------------------
    Charge (ESU x 10^10)
                -0.0000
    Dipole Moment (Debye)
         X      -4.0167      Y      -0.5995      Z       6.2726
       Tot       7.4725
    Quadrupole Moments (Debye-Ang)
        XX     -41.1722     XY     -12.9123     YY     -47.8330
        XZ       5.4061     YZ     -14.4599     ZZ     -82.3657
    Octopole Moments (Debye-Ang^2)
       XXX     -53.8365    XXY     -24.2425    XYY       3.7130
       YYY      -7.5346    XXZ      46.7067    XYZ      13.6985
       YYZ      -7.7572    XZZ      -4.3033    YZZ      -7.8452
       ZZZ      54.4323
    Hexadecapole Moments (Debye-Ang^3)
      XXXX   -1023.8199   XXXY     -49.1789   XXYY    -266.8378
      XYYY    -105.0669   YYYY    -661.5409   XXXZ      26.1899
      XXYZ     -89.1359   XYYZ      24.2387   YYYZ     -62.7342
      XXZZ    -510.8957   XYZZ      42.2074   YYZZ    -438.8092
      XZZZ     146.2021   YZZZ    -186.7537   ZZZZ   -1586.0698
 -----------------------------------------------------------------
 Total job time:  10265.13s(wall), 325084.36s(cpu) 
 Wed Dec 18 00:40:01 2024

        *************************************************************
        *                                                           *
        *  Thank you very much for using Q-Chem.  Have a nice day.  *
        *                                                           *
        *************************************************************


