                  Welcome to Q-Chem
     A Quantum Leap Into The Future Of Chemistry


 Q-Chem 6.2 (devel), Q-Chem, Inc., Pleasanton, CA (2024)

 E. Epifanovsky,  A. T. B. Gilbert,  Xintian Feng,  Joonho Lee,  Yuezhi Mao,  
 N. Mardirossian,  P. Pokhilko,  A. White,  M. Wormit,  M. P. Coons,  
 A. L. Dempwolff,  Zhengting Gan,  D. Hait,  P. R. Horn,  L. D. Jacobson,  
 I. Kaliman,  J. Kussmann,  A. W. Lange,  Ka Un Lao,  D. S. Levine,  Jie Liu,  
 S. C. McKenzie,  A. F. Morrison,  K. D. Nanda,  F. Plasser,  D. R. Rehn,  
 M. L. Vidal,  Zhi-Qiang You,  Ying Zhu,  Huseyin Aksu,  B. Alam,  
 B. Albrecht,  A. Aldossary,  E. Alguire,  J. H. Andersen,  
 J. E. Arias-Martinez,  V. Athavale,  D. Barton,  K. Begam,  A. Behn,  
 N. Bellonzi,  Y. A. Bernard,  E. J. Berquist,  H. Burton,  A. Carreras,  
 K. Carter-Fenk,  Mathew Chow,  Romit Chakraborty,  Chandrima Chakravarty,  
 Junhan Chen,  A. D. Chien,  K. D. Closser,  V. Cofer-Shabica,  L. Cunha,  
 S. Dasgupta,  Jia Deng,  Joseph Dickinson,  M. de Wergifosse,  
 M. Diedenhofen,  Hainam Do,  Wenjie Dou,  S. Ehlert,  Po-Tung Fang,  
 S. Fatehi,  Qingguo Feng,  Jonathan Fetherolf,  T. Friedhoff,  
 Thomas Froitzheim,  Sarai Folkestad,  B. Ganoe,  J. Gayvert,  Qinghui Ge,  
 G. Gidofalvi,  M. Gimferrer,  M. Goldey,  Montgomery Gray,  J. Gomes,  
 C. Gonzalez-Espinoza,  S. Gulania,  A. Gunina,  J. A. Gyamfi,  
 M. W. D. Hanson-Heine,  P. H. P. Harbach,  A. W. Hauser,  M. F. Herbst,  
 M. Hernandez Vera,  M. Hodecker,  Z. C. Holden,  S. Houck,  Xunkun Huang,  
 Kerwin Hui,  B. C. Huynh,  K. Ikeda,  M. Ivanov,  Nayanthara K. Jayadev,  
 Hyunjun Ji,  Zuxin Jin,  Hanjie Jiang,  Subrata Jana,  B. Kaduk,  
 S. Kaehler,  R. Kang,  K. Khistyaev,  Jaehoon Kim,  Yongbin Kim,  
 P. Klunzinger,  Z. Koczor-Benda,  Joong Hoon Koh,  D. Kosenkov,  
 Saikiran Kotaru,  L. Koulias,  T. Kowalczyk,  C. M. Krauter,  K. Kue,  
 A. Kunitsa,  T. Kus,  A. Landau,  K. V. Lawler,  D. Lefrancois,  S. Lehtola,  
 Rain Li,  Shaozhi Li,  Tao E. Li,  Yi-Pei Li,  Jiashu Liang,  M. Liebenthal,  
 Hung-Hsuan Lin,  You-Sheng Lin,  Fenglai Liu,  Kuan-Yu Liu,  Xiao Liu,  
 M. Loipersberger,  A. Luenser,  C. Malbon,  Aniket Mandal,  Manisha,  
 A. Manjanath,  P. Manohar,  E. Mansoor,  S. F. Manzer,  Shan-Ping Mao,  
 A. V. Marenich,  T. Markovich,  S. Mason,  F. Matz,  S. A. Maurer,  
 Samuel May,  Alexandra McIsaac,  P. F. McLaughlin,  M. F. S. J. Menger,  
 J.-M. Mewes,  S. A. Mewes,  P. Morgante,  Mohammad Mostafanejad,  
 Madhubani Mukherjee,  J. W. Mullinax,  Quyen Nguyen,  Avik Kumar Ojha,  
 K. J. Oosterbaan,  Eno Paenurk,  Xiaoliang Pan,  G. Paran,  V. Parravicini,  
 Alexander C. Paul,  Suranjan K. Paul,  F. Pavosevic,  Zheng Pei,  S. Prager,  
 E. I. Proynov,  E. Ramos,  B. Rana,  A. E. Rask,  A. Rettig,  R. M. Richard,  
 F. Rob,  E. Rossomme,  T. Scheele,  M. Scheurer,  M. Schneider,  
 P. E. Schneider,  Tim K. Schramm,  N. Sergueev,  S. M. Sharada,  
 Hengyuan Shen,  W. Skomorowski,  D. W. Small,  C. J. Stein,  
 Alistair J. Sterling,  Yingli Su,  Yu-Chuan Su,  E. J. Sundstrom,  
 J. Talbot,  Zhen Tao,  J. Thirman,  Hung-Yi Tsai,  T. Tsuchimochi,  
 N. M. Tubman,  C. Utku,  S. P. Veccham,  O. Vydrov,  Rahel Weiss,  
 J. Wenzel,  Jonathan Wong,  J. Witte,  H. Wu,  Yanze Wu,  A. Yamada,  
 Chou-Hsun Yang,  Kun Yao,  S. Yeganeh,  S. R. Yost,  Qi Yu,  A. Zech,  
 F. Zeller,  Chongxiao Zhao,  Igor Ying Zhang,  Xing Zhang,  Yu Zhang,  
 D. Zuev,  A. Aspuru-Guzik,  A. T. Bell,  N. A. Besley,  K. B. Bravaya,  
 B. R. Brooks,  D. Casanova,  Jeng-Da Chai,  Hsing-Ta Chen,  S. Coriani,  
 C. J. Cramer,  A. E. DePrince, III,  R. A. DiStasio Jr.,  A. Dreuw,  
 B. D. Dunietz,  T. R. Furlani,  W. A. Goddard III,  S. Grimme,  
 S. Hammes-Schiffer,  T. Head-Gordon,  W. J. Hehre,  Chao-Ping Hsu,  
 T.-C. Jagau,  Yousung Jung,  A. Klamt,  Jing Kong,  D. S. Lambrecht,  
 Xiangyuan Li,  WanZhen Liang,  N. J. Mayhall,  C. W. McCurdy,  J. B. Neaton,  
 T. Neudecker,  C. Ochsenfeld,  J. A. Parkhill,  R. Peverati,  
 V. A. Rassolov,  Haisheng Ren,  Yihan Shao,  L. V. Slipchenko,  
 R. P. Steele,  J. E. Subotnik,  A. J. W. Thom,  A. Tkatchenko,  
 D. G. Truhlar,  T. Van Voorhis,  Fan Wang,  T. A. Wesolowski,  K. B. Whaley,  
 H. L. Woodcock III,  P. M. Zimmerman,  S. Faraji,  P. M. W. Gill,  
 M. Head-Gordon,  J. M. Herbert,  A. I. Krylov

 Contributors to earlier versions of Q-Chem not listed above: 
 R. D. Adamson,  B. Austin,  R. Baer,  J. Baker,  G. J. O. Beran,  
 K. Brandhorst,  S. T. Brown,  E. F. C. Byrd,  Arup K. Chakraborty,  
 G. K. L. Chan,  Chun-Min Chang,  Yunqing Chen,  C.-L. Cheng,  
 Siu Hung Chien,  D. M. Chipman,  D. L. Crittenden,  H. Dachsel,  
 R. J. Doerksen,  A. D. Dutoi,  R. G. Edgar,  J. Fosso-Tande,  
 L. Fusti-Molnar,  D. Ghosh,  A. Ghysels,  A. Golubeva-Zadorozhnaya,  
 J. Gonthier,  M. S. Gordon,  S. R. Gwaltney,  G. Hawkins,  J. E. Herr,  
 A. Heyden,  S. Hirata,  E. G. Hohenstein,  G. Kedziora,  F. J. Keil,  
 C. Kelley,  Jihan Kim,  R. A. King,  R. Z. Khaliullin,  P. P. Korambath,  
 W. Kurlancheek,  A. Laurent,  A. M. Lee,  M. S. Lee,  S. V. Levchenko,  
 Ching Yeh Lin,  D. Liotard,  E. Livshits,  R. C. Lochan,  I. Lotan,  
 L. A. Martinez-Martinez,  P. E. Maslen,  N. Nair,  D. P. O'Neill,  
 D. Neuhauser,  E. Neuscamman,  C. M. Oana,  R. Olivares-Amaya,  R. Olson,  
 T. M. Perrine,  B. Peters,  P. A. Pieniazek,  A. Prociuk,  Y. M. Rhee,  
 J. Ritchie,  M. A. Rohrdanz,  E. Rosta,  N. J. Russ,  H. F. Schaefer III,  
 M. W. Schmidt,  N. E. Schultz,  S. Sharma,  N. Shenvi,  C. D. Sherrill,  
 A. C. Simmonett,  A. Sodt,  T. Stein,  D. Stuck,  K. S. Thanthiriwatte,  
 V. Vanovschi,  L. Vogt,  Tao Wang,  A. Warshel,  M. A. Watson,  
 C. F. Williams,  Q. Wu,  X. Xu,  Jun Yang,  W. Zhang,  Yan Zhao

   Please cite Q-Chem as follows:
  "Software for the frontiers of quantum chemistry:
   An overview of developments in the Q-Chem 5 package"
   J. Chem. Phys. 155, 084801 (2021)
   https://doi.org/10.1063/5.0055522 (open access)

 Q-Chem 6.2.2 for Intel X86 EM64T Linux

 Parts of Q-Chem use Armadillo 9.900.5 (Nocturnal Misbehaviour).
 http://arma.sourceforge.net/

 Q-Chem begins on Thu Jan  9 12:54:55 2025  

 Host: compute-0-15.local
0

     Scratch files written to /scratch/keith/A2D1_1//
 Processing $rem in /home/keith/software/qchem/qchem_622/config/preferences:
 Processing $rem in /home/keith/.qchemrc:

 Checking the input file for inconsistencies... 	...done.

--------------------------------------------------------------
User input:
--------------------------------------------------------------
$molecule
read
$end

$rem
method                    b3lyp 
basis                     cc-pv5z 
mem_total                 63000
mem_static                8000
thresh                    12
scf_convergence           8
xc_grid                   000075000302
max_scf_cycles            2000
symmetry                  false
sym_ignore                true
scf_guess                 read
skip_scfman               true
cis_n_roots               150
cis_triplets              false
rpa                       false 
trnss                     true
trtype                    3
n_sol                     1
nto_pairs                 2
gui                       2
print_orbitals            true
state_analysis            true
$end

$solute 
4 
$end
--------------------------------------------------------------
 ----------------------------------------------------------------
             Standard Nuclear Orientation (Angstroms)
    I     Atom           X                Y                Z
 ----------------------------------------------------------------
    1      O       0.6183800000    -0.4701600000     0.3638200000
    2      H      -0.3420200000    -0.3624600000     0.4198200000
    3      H       0.7733800000    -1.4191600000     0.5908200000
    4      O       1.9620800000     1.9165400000     0.5268200000
    5      H       1.3240800000     2.6015400000     0.6738200000
    6      H       1.3796800000     1.1835400000     0.5838200000
    7      O      -2.1852200000    -0.3837600000     2.1688200000
    8      H      -2.7203200000    -1.1718600000     2.4768200000
    9      H      -2.8985200000     0.1505400000     1.6918200000
   10      O       0.4149800000    -0.7182600000    -2.9701800000
   11      H      -0.4074200000    -0.2384600000    -3.1081800000
   12      H       0.7285800000    -0.5665600000    -2.0571800000
   13      O      -2.8681200000    -0.6836600000    -1.9811800000
   14      H      -2.4191200000    -0.0234600000    -1.4201800000
   15      H      -3.6748200000    -0.7610600000    -1.5071800000
   16      O       3.0390800000     0.1535400000    -1.6491800000
   17      H       3.7630800000     0.0975400000    -1.0081800000
   18      H       2.6640800000     0.9505400000    -1.2271800000
   19      O      -1.8848200000     1.8875400000    -1.0201800000
   20      H      -2.5368200000     2.5545400000    -1.1371800000
   21      H      -1.3465200000     2.1585400000    -0.2621800000
   22      O      -0.2784200000     1.3275400000     3.3858200000
   23      H      -0.6178200000     0.4825400000     3.0388200000
   24      H       0.5502800000     1.0165400000     3.8408200000
   25      O       1.3091800000    -3.0453600000     0.9738200000
   26      H       2.1910800000    -2.7858600000     1.3248200000
   27      H       1.5714800000    -3.6116600000     0.2858200000
 ----------------------------------------------------------------
 Nuclear Repulsion Energy =         540.92617116 hartrees
 There are       45 alpha and       45 beta electrons
 Requested basis set is cc-pV5Z
 There are 459 shells and 1809 basis functions

 Total QAlloc Memory Limit  63000 MB
 Mega-Array Size      7821 MB
 MEM_STATIC part      8000 MB

 A cutoff of  1.0D-12 yielded  58179 shell pairs
 There are    724139 function pairs (   1175551 Cartesian)
 Smallest overlap matrix eigenvalue = 1.67E-05

 Scale SEOQF with 1.000000e-01/1.000000e-01/1.000000e-01

 Standard Electronic Orientation quadrupole field applied
 Nucleus-field energy     =    -0.0000000089 hartrees
 Guess MOs from SCF MO coefficient file
 Reading MOs from coefficient file
 Reading MOs from coefficient file
 Skipping gen_scfman as requested.
 MAX_CIS_SUBSPACE fits in available memory
 Direct TDDFT/TDA calculation will be performed
 Exchange:     0.2000 Hartree-Fock + 0.0800 Slater + 0.7200 B88
 Correlation:  0.1900 VWN1RPA + 0.8100 LYP
 Using Euler-Maclaurin-Lebedev (75,302) quadrature formula
 Singlet excitation energies requested
 CIS energy converged when residual is below 10e- 6
   
 ***Using a Restricted Set of Single Excitations***
   
 RCIS calculation
   
 Excitations from specified occupied orbitals
 -------------------------------------------------------------
              Orbitals in Truncated CIS space
 -------------------------------------------------------------
     4  46  47  48  49  50  51  52  53  54  55  56  57  58  59
    60  61  62  63  64  65  66  67  68  69  70  71  72  73  74
    75  76  77  78  79  80  81  82  83  84  85  86  87  88  89
    90  91  92  93  94  95  96  97  98  99 100 101 102 103 104
   105 106 107 108 109 110 111 112 113 114 115 116 117 118 119
   120 121 122 123 124 125 126 127 128 129 130 131 132 133 134
   135 136 137 138 139 140 141 142 143 144 145 146 147 148 149
   150 151 152 153 154 155 156 157 158 159 160 161 162 163 164
   165 166 167 168 169 170 171 172 173 174 175 176 177 178 179
   180 181 182 183 184 185 186 187 188 189 190 191 192 193 194
   195 196 197 198 199 200 201 202 203 204 205 206 207 208 209
   210 211 212 213 214 215 216 217 218 219 220 221 222 223 224
   225 226 227 228 229 230 231 232 233 234 235 236 237 238 239
   240 241 242 243 244 245 246 247 248 249 250 251 252 253 254
   255 256 257 258 259 260 261 262 263 264 265 266 267 268 269
   270 271 272 273 274 275 276 277 278 279 280 281 282 283 284
   285 286 287 288 289 290 291 292 293 294 295 296 297 298 299
   300 301 302 303 304 305 306 307 308 309 310 311 312 313 314
   315 316 317 318 319 320 321 322 323 324 325 326 327 328 329
   330 331 332 333 334 335 336 337 338 339 340 341 342 343 344
   345 346 347 348 349 350 351 352 353 354 355 356 357 358 359
   360 361 362 363 364 365 366 367 368 369 370 371 372 373 374
   375 376 377 378 379 380 381 382 383 384 385 386 387 388 389
   390 391 392 393 394 395 396 397 398 399 400 401 402 403 404
   405 406 407 408 409 410 411 412 413 414 415 416 417 418 419
   420 421 422 423 424 425 426 427 428 429 430 431 432 433 434
   435 436 437 438 439 440 441 442 443 444 445 446 447 448 449
   450 451 452 453 454 455 456 457 458 459 460 461 462 463 464
   465 466 467 468 469 470 471 472 473 474 475 476 477 478 479
   480 481 482 483 484 485 486 487 488 489 490 491 492 493 494
   495 496 497 498 499 500 501 502 503 504 505 506 507 508 509
   510 511 512 513 514 515 516 517 518 519 520 521 522 523 524
   525 526 527 528 529 530 531 532 533 534 535 536 537 538 539
   540 541 542 543 544 545 546 547 548 549 550 551 552 553 554
   555 556 557 558 559 560 561 562 563 564 565 566 567 568 569
   570 571 572 573 574 575 576 577 578 579 580 581 582 583 584
   585 586 587 588 589 590 591 592 593 594 595 596 597 598 599
   600 601 602 603 604 605 606 607 608 609 610 611 612 613 614
   615 616 617 618 619 620 621 622 623 624 625 626 627 628 629
   630 631 632 633 634 635 636 637 638 639 640 641 642 643 644
   645 646 647 648 649 650 651 652 653 654 655 656 657 658 659
   660 661 662 663 664 665 666 667 668 669 670 671 672 673 674
   675 676 677 678 679 680 681 682 683 684 685 686 687 688 689
   690 691 692 693 694 695 696 697 698 699 700 701 702 703 704
   705 706 707 708 709 710 711 712 713 714 715 716 717 718 719
   720 721 722 723 724 725 726 727 728 729 730 731 732 733 734
   735 736 737 738 739 740 741 742 743 744 745 746 747 748 749
   750 751 752 753 754 755 756 757 758 759 760 761 762 763 764
   765 766 767 768 769 770 771 772 773 774 775 776 777 778 779
   780 781 782 783 784 785 786 787 788 789 790 791 792 793 794
   795 796 797 798 799 800 801 802 803 804 805 806 807 808 809
   810 811 812 813 814 815 816 817 818 819 820 821 822 823 824
   825 826 827 828 829 830 831 832 833 834 835 836 837 838 839
   840 841 842 843 844 845 846 847 848 849 850 851 852 853 854
   855 856 857 858 859 860 861 862 863 864 865 866 867 868 869
   870 871 872 873 874 875 876 877 878 879 880 881 882 883 884
   885 886 887 888 889 890 891 892 893 894 895 896 897 898 899
   900 901 902 903 904 905 906 907 908 909 910 911 912 913 914
   915 916 917 918 919 920 921 922 923 924 925 926 927 928 929
   930 931 932 933 934 935 936 937 938 939 940 941 942 943 944
   945 946 947 948 949 950 951 952 953 954 955 956 957 958 959
   960 961 962 963 964 965 966 967 968 969 970 971 972 973 974
   975 976 977 978 979 980 981 982 983 984 985 986 987 988 989
   990 991 992 993 994 995 996 997 998 99910001001100210031004
  100510061007100810091010101110121013101410151016101710181019
  102010211022102310241025102610271028102910301031103210331034
  103510361037103810391040104110421043104410451046104710481049
  105010511052105310541055105610571058105910601061106210631064
  106510661067106810691070107110721073107410751076107710781079
  108010811082108310841085108610871088108910901091109210931094
  109510961097109810991100110111021103110411051106110711081109
  111011111112111311141115111611171118111911201121112211231124
  112511261127112811291130113111321133113411351136113711381139
  114011411142114311441145114611471148114911501151115211531154
  115511561157115811591160116111621163116411651166116711681169
  117011711172117311741175117611771178117911801181118211831184
  118511861187118811891190119111921193119411951196119711981199
  120012011202120312041205120612071208120912101211121212131214
  121512161217121812191220122112221223122412251226122712281229
  123012311232123312341235123612371238123912401241124212431244
  124512461247124812491250125112521253125412551256125712581259
  126012611262126312641265126612671268126912701271127212731274
  127512761277127812791280128112821283128412851286128712881289
  129012911292129312941295129612971298129913001301130213031304
  130513061307130813091310131113121313131413151316131713181319
  132013211322132313241325132613271328132913301331133213331334
  133513361337133813391340134113421343134413451346134713481349
  135013511352135313541355135613571358135913601361136213631364
  136513661367136813691370137113721373137413751376137713781379
  138013811382138313841385138613871388138913901391139213931394
  139513961397139813991400140114021403140414051406140714081409
  141014111412141314141415141614171418141914201421142214231424
  142514261427142814291430143114321433143414351436143714381439
  144014411442144314441445144614471448144914501451145214531454
  145514561457145814591460146114621463146414651466146714681469
  147014711472147314741475147614771478147914801481148214831484
  148514861487148814891490149114921493149414951496149714981499
  150015011502150315041505150615071508150915101511151215131514
  151515161517151815191520152115221523152415251526152715281529
  153015311532153315341535153615371538153915401541154215431544
  154515461547154815491550155115521553155415551556155715581559
  156015611562156315641565156615671568156915701571157215731574
  157515761577157815791580158115821583158415851586158715881589
  159015911592159315941595159615971598159916001601160216031604
  160516061607160816091610161116121613161416151616161716181619
  162016211622162316241625162616271628162916301631163216331634
  163516361637163816391640164116421643164416451646164716481649
  165016511652165316541655165616571658165916601661166216631664
  166516661667166816691670167116721673167416751676167716781679
  168016811682168316841685168616871688168916901691169216931694
  169516961697169816991700170117021703170417051706170717081709
  171017111712171317141715171617171718171917201721172217231724
  172517261727172817291730173117321733173417351736173717381739
  174017411742174317441745174617471748174917501751175217531754
  175517561757175817591760176117621763176417651766176717681769
  177017711772177317741775177617771778177917801781178217831784
  178517861787178817891790179117921793179417951796179717981799
  1800180118021803180418051806180718081809
   
    Number of Occupied Orbitals =    1  out of    45
    Number of Virtual Orbitals  = 1764  out of  1764
 -------------------------------------------------------------
 Number of Roots adjusted to:         150
 ---------------------------------------------------
 Iter    Rts Conv    Rts Left    Ttl Dev     Max Dev
 ---------------------------------------------------
   1         0         150      0.008831    0.000183
   2        23         127      0.005526    0.000110
   3       142           8      0.005511    0.000110
   4       150           0      0.005511    0.000110    Roots Converged
 ---------------------------------------------------

 ---------------------------------------------------
         TDDFT/TDA Excitation Energies              
 ---------------------------------------------------

 Excited state   1: excitation energy (eV) =     518.0807
 Total energy for state   1:                  -669.24097038 au
    Multiplicity: Singlet
    Trans. Mom.:  0.0121 X  -0.0003 Y  -0.0032 Z
    Strength   :     0.0019920317
    D(    4) --> V(    1) amplitude =  0.9845

 Excited state   2: excitation energy (eV) =     518.9627
 Total energy for state   2:                  -669.20855780 au
    Multiplicity: Singlet
    Trans. Mom.:  0.0032 X  -0.0089 Y   0.0033 Z
    Strength   :     0.0012816711
    D(    4) --> V(    2) amplitude =  0.9915

 Excited state   3: excitation energy (eV) =     519.2047
 Total energy for state   3:                  -669.19966726 au
    Multiplicity: Singlet
    Trans. Mom.: -0.0016 X  -0.0053 Y   0.0034 Z
    Strength   :     0.0005416516
    D(    4) --> V(    3) amplitude =  0.9910

 Excited state   4: excitation energy (eV) =     519.8272
 Total energy for state   4:                  -669.17678857 au
    Multiplicity: Singlet
    Trans. Mom.:  0.0022 X   0.0059 Y   0.0083 Z
    Strength   :     0.0013801861
    D(    4) --> V(    4) amplitude =  0.9889

 Excited state   5: excitation energy (eV) =     520.3655
 Total energy for state   5:                  -669.15700644 au
    Multiplicity: Singlet
    Trans. Mom.:  0.0198 X   0.0001 Y   0.0068 Z
    Strength   :     0.0056083942
    D(    4) --> V(    5) amplitude = -0.3060
    D(    4) --> V(    6) amplitude =  0.7210
    D(    4) --> V(    7) amplitude = -0.3321
    D(    4) --> V(    9) amplitude =  0.3845
    D(    4) --> V(   10) amplitude = -0.2584

 Excited state   6: excitation energy (eV) =     520.5040
 Total energy for state   6:                  -669.15191847 au
    Multiplicity: Singlet
    Trans. Mom.:  0.0051 X   0.0000 Y  -0.0011 Z
    Strength   :     0.0003523832
    D(    4) --> V(    5) amplitude =  0.9408

 Excited state   7: excitation energy (eV) =     520.6052
 Total energy for state   7:                  -669.14819856 au
    Multiplicity: Singlet
    Trans. Mom.: -0.0164 X  -0.0053 Y   0.0038 Z
    Strength   :     0.0039785819
    D(    4) --> V(    6) amplitude =  0.6048
    D(    4) --> V(    7) amplitude =  0.6084
    D(    4) --> V(    8) amplitude = -0.3012
    D(    4) --> V(    9) amplitude = -0.2727
    D(    4) --> V(   10) amplitude =  0.2590

 Excited state   8: excitation energy (eV) =     520.9322
 Total energy for state   8:                  -669.13618149 au
    Multiplicity: Singlet
    Trans. Mom.:  0.0050 X  -0.0009 Y  -0.0020 Z
    Strength   :     0.0003873559
    D(    4) --> V(    7) amplitude =  0.4789
    D(    4) --> V(    8) amplitude =  0.8558

 Excited state   9: excitation energy (eV) =     520.9455
 Total energy for state   9:                  -669.13569255 au
    Multiplicity: Singlet
    Trans. Mom.: -0.0125 X   0.0022 Y   0.0021 Z
    Strength   :     0.0021182570
    D(    4) --> V(    6) amplitude =  0.2340
    D(    4) --> V(    7) amplitude = -0.5104
    D(    4) --> V(    8) amplitude =  0.4015
    D(    4) --> V(    9) amplitude = -0.4297
    D(    4) --> V(   10) amplitude =  0.5435

 Excited state  10: excitation energy (eV) =     521.1813
 Total energy for state  10:                  -669.12702521 au
    Multiplicity: Singlet
    Trans. Mom.: -0.0032 X   0.0030 Y   0.0057 Z
    Strength   :     0.0006599864
    D(    4) --> V(    9) amplitude =  0.7162
    D(    4) --> V(   10) amplitude =  0.6786

 Excited state  11: excitation energy (eV) =     521.7680
 Total energy for state  11:                  -669.10546600 au
    Multiplicity: Singlet
    Trans. Mom.: -0.0106 X   0.0005 Y   0.0075 Z
    Strength   :     0.0021585263
    D(    4) --> V(   10) amplitude = -0.2379
    D(    4) --> V(   11) amplitude =  0.9386

 Excited state  12: excitation energy (eV) =     521.9856
 Total energy for state  12:                  -669.09746889 au
    Multiplicity: Singlet
    Trans. Mom.: -0.0026 X   0.0104 Y  -0.0071 Z
    Strength   :     0.0021314211
    D(    4) --> V(   12) amplitude =  0.9440
    D(    4) --> V(   13) amplitude =  0.2406

 Excited state  13: excitation energy (eV) =     522.3465
 Total energy for state  13:                  -669.08420758 au
    Multiplicity: Singlet
    Trans. Mom.: -0.0099 X   0.0067 Y  -0.0126 Z
    Strength   :     0.0038750198
    D(    4) --> V(   12) amplitude = -0.2499
    D(    4) --> V(   13) amplitude =  0.9267

 Excited state  14: excitation energy (eV) =     522.8575
 Total energy for state  14:                  -669.06542864 au
    Multiplicity: Singlet
    Trans. Mom.:  0.0107 X   0.0066 Y   0.0023 Z
    Strength   :     0.0021054264
    D(    4) --> V(   14) amplitude =  0.8810
    D(    4) --> V(   15) amplitude = -0.2536
    D(    4) --> V(   16) amplitude = -0.3323

 Excited state  15: excitation energy (eV) =     522.9975
 Total energy for state  15:                  -669.06028197 au
    Multiplicity: Singlet
    Trans. Mom.: -0.0127 X   0.0167 Y   0.0048 Z
    Strength   :     0.0059517499
    D(    4) --> V(   15) amplitude =  0.8920
    D(    4) --> V(   16) amplitude = -0.2641

 Excited state  16: excitation energy (eV) =     523.1928
 Total energy for state  16:                  -669.05310459 au
    Multiplicity: Singlet
    Trans. Mom.: -0.0034 X  -0.0112 Y  -0.0126 Z
    Strength   :     0.0037783571
    D(    4) --> V(   14) amplitude =  0.3895
    D(    4) --> V(   16) amplitude =  0.8634

 Excited state  17: excitation energy (eV) =     523.4935
 Total energy for state  17:                  -669.04205663 au
    Multiplicity: Singlet
    Trans. Mom.:  0.0018 X  -0.0057 Y   0.0151 Z
    Strength   :     0.0033722838
    D(    4) --> V(   17) amplitude =  0.9472

 Excited state  18: excitation energy (eV) =     523.8780
 Total energy for state  18:                  -669.02792307 au
    Multiplicity: Singlet
    Trans. Mom.:  0.0172 X   0.0029 Y  -0.0091 Z
    Strength   :     0.0049641629
    D(    4) --> V(   18) amplitude =  0.9419

 Excited state  19: excitation energy (eV) =     524.1779
 Total energy for state  19:                  -669.01690526 au
    Multiplicity: Singlet
    Trans. Mom.:  0.0050 X   0.0023 Y   0.0041 Z
    Strength   :     0.0006062567
    D(    4) --> V(   19) amplitude =  0.8380
    D(    4) --> V(   20) amplitude =  0.3638
    D(    4) --> V(   21) amplitude =  0.2752
    D(    4) --> V(   22) amplitude =  0.2134

 Excited state  20: excitation energy (eV) =     524.3836
 Total energy for state  20:                  -669.00934364 au
    Multiplicity: Singlet
    Trans. Mom.: -0.0093 X   0.0022 Y   0.0034 Z
    Strength   :     0.0013294531
    D(    4) --> V(   19) amplitude = -0.4739
    D(    4) --> V(   20) amplitude =  0.7749
    D(    4) --> V(   22) amplitude =  0.2128

 Excited state  21: excitation energy (eV) =     524.6882
 Total energy for state  21:                  -668.99815198 au
    Multiplicity: Singlet
    Trans. Mom.: -0.0010 X   0.0066 Y  -0.0031 Z
    Strength   :     0.0007017559
    D(    4) --> V(   20) amplitude = -0.3212
    D(    4) --> V(   21) amplitude =  0.8384
    D(    4) --> V(   23) amplitude =  0.2666

 Excited state  22: excitation energy (eV) =     524.8265
 Total energy for state  22:                  -668.99306716 au
    Multiplicity: Singlet
    Trans. Mom.: -0.0093 X   0.0131 Y   0.0018 Z
    Strength   :     0.0033664689
    D(    4) --> V(   21) amplitude = -0.4093
    D(    4) --> V(   22) amplitude =  0.7506
    D(    4) --> V(   23) amplitude =  0.3370

 Excited state  23: excitation energy (eV) =     524.8415
 Total energy for state  23:                  -668.99251572 au
    Multiplicity: Singlet
    Trans. Mom.:  0.0005 X   0.0208 Y  -0.0047 Z
    Strength   :     0.0058266711
    D(    4) --> V(   20) amplitude =  0.2609
    D(    4) --> V(   22) amplitude = -0.4318
    D(    4) --> V(   23) amplitude =  0.6791
    D(    4) --> V(   25) amplitude =  0.3695

 Excited state  24: excitation energy (eV) =     525.2184
 Total energy for state  24:                  -668.97866557 au
    Multiplicity: Singlet
    Trans. Mom.: -0.0079 X   0.0083 Y  -0.0082 Z
    Strength   :     0.0025581563
    D(    4) --> V(   23) amplitude = -0.3240
    D(    4) --> V(   24) amplitude =  0.6710
    D(    4) --> V(   25) amplitude =  0.4368
    D(    4) --> V(   26) amplitude = -0.2798

 Excited state  25: excitation energy (eV) =     525.3092
 Total energy for state  25:                  -668.97532749 au
    Multiplicity: Singlet
    Trans. Mom.: -0.0012 X   0.0012 Y   0.0022 Z
    Strength   :     0.0000976480
    D(    4) --> V(   23) amplitude = -0.3606
    D(    4) --> V(   24) amplitude = -0.5997
    D(    4) --> V(   25) amplitude =  0.6539

 Excited state  26: excitation energy (eV) =     525.3450
 Total energy for state  26:                  -668.97401427 au
    Multiplicity: Singlet
    Trans. Mom.:  0.0038 X  -0.0092 Y   0.0074 Z
    Strength   :     0.0019900301
    D(    4) --> V(   24) amplitude =  0.3697
    D(    4) --> V(   25) amplitude =  0.2916
    D(    4) --> V(   26) amplitude =  0.7137
    D(    4) --> V(   28) amplitude = -0.2409
    D(    4) --> V(   31) amplitude =  0.2261

 Excited state  27: excitation energy (eV) =     525.5714
 Total energy for state  27:                  -668.96569488 au
    Multiplicity: Singlet
    Trans. Mom.: -0.0123 X   0.0160 Y   0.0031 Z
    Strength   :     0.0053850929
    D(    4) --> V(   25) amplitude = -0.2603
    D(    4) --> V(   26) amplitude =  0.4683
    D(    4) --> V(   28) amplitude =  0.3139
    D(    4) --> V(   29) amplitude = -0.3249
    D(    4) --> V(   31) amplitude = -0.4369
    D(    4) --> V(   33) amplitude = -0.3580

 Excited state  28: excitation energy (eV) =     525.6311
 Total energy for state  28:                  -668.96350048 au
    Multiplicity: Singlet
    Trans. Mom.: -0.0049 X  -0.0043 Y  -0.0107 Z
    Strength   :     0.0020332774
    D(    4) --> V(   26) amplitude =  0.3496
    D(    4) --> V(   27) amplitude =  0.7603
    D(    4) --> V(   29) amplitude =  0.4236

 Excited state  29: excitation energy (eV) =     525.8244
 Total energy for state  29:                  -668.95639596 au
    Multiplicity: Singlet
    Trans. Mom.:  0.0056 X   0.0024 Y  -0.0004 Z
    Strength   :     0.0004865912
    D(    4) --> V(   28) amplitude =  0.6686
    D(    4) --> V(   30) amplitude =  0.6700

 Excited state  30: excitation energy (eV) =     525.8749
 Total energy for state  30:                  -668.95453841 au
    Multiplicity: Singlet
    Trans. Mom.:  0.0008 X  -0.0044 Y  -0.0008 Z
    Strength   :     0.0002690443
    D(    4) --> V(   27) amplitude = -0.2696
    D(    4) --> V(   28) amplitude =  0.5066
    D(    4) --> V(   29) amplitude =  0.5544
    D(    4) --> V(   30) amplitude = -0.5344

 Excited state  31: excitation energy (eV) =     525.9682
 Total energy for state  31:                  -668.95111036 au
    Multiplicity: Singlet
    Trans. Mom.: -0.0020 X  -0.0016 Y  -0.0004 Z
    Strength   :     0.0000886880
    D(    4) --> V(   27) amplitude = -0.4308
    D(    4) --> V(   28) amplitude = -0.2473
    D(    4) --> V(   29) amplitude =  0.5563
    D(    4) --> V(   30) amplitude =  0.4193
    D(    4) --> V(   31) amplitude = -0.4519

 Excited state  32: excitation energy (eV) =     526.1634
 Total energy for state  32:                  -668.94393918 au
    Multiplicity: Singlet
    Trans. Mom.:  0.0061 X  -0.0130 Y  -0.0005 Z
    Strength   :     0.0026704798
    D(    4) --> V(   29) amplitude = -0.2280
    D(    4) --> V(   31) amplitude = -0.5704
    D(    4) --> V(   32) amplitude =  0.2999
    D(    4) --> V(   33) amplitude =  0.6317

 Excited state  33: excitation energy (eV) =     526.1925
 Total energy for state  33:                  -668.94286761 au
    Multiplicity: Singlet
    Trans. Mom.:  0.0007 X   0.0018 Y  -0.0038 Z
    Strength   :     0.0002354324
    D(    4) --> V(   32) amplitude =  0.9286
    D(    4) --> V(   33) amplitude = -0.2420

 Excited state  34: excitation energy (eV) =     526.4189
 Total energy for state  34:                  -668.93454937 au
    Multiplicity: Singlet
    Trans. Mom.: -0.0057 X   0.0088 Y  -0.0013 Z
    Strength   :     0.0014318434
    D(    4) --> V(   33) amplitude =  0.4787
    D(    4) --> V(   34) amplitude =  0.5069
    D(    4) --> V(   35) amplitude =  0.6176
    D(    4) --> V(   36) amplitude =  0.2305

 Excited state  35: excitation energy (eV) =     526.5285
 Total energy for state  35:                  -668.93052233 au
    Multiplicity: Singlet
    Trans. Mom.: -0.0128 X  -0.0071 Y   0.0057 Z
    Strength   :     0.0031712893
    D(    4) --> V(   34) amplitude =  0.7718
    D(    4) --> V(   35) amplitude = -0.5331

 Excited state  36: excitation energy (eV) =     526.7583
 Total energy for state  36:                  -668.92207593 au
    Multiplicity: Singlet
    Trans. Mom.:  0.0035 X   0.0090 Y  -0.0011 Z
    Strength   :     0.0012035762
    D(    4) --> V(   35) amplitude = -0.3798
    D(    4) --> V(   36) amplitude =  0.8832

 Excited state  37: excitation energy (eV) =     526.9225
 Total energy for state  37:                  -668.91604114 au
    Multiplicity: Singlet
    Trans. Mom.:  0.0026 X  -0.0053 Y   0.0041 Z
    Strength   :     0.0006662162
    D(    4) --> V(   38) amplitude =  0.8875
    D(    4) --> V(   39) amplitude = -0.2801

 Excited state  38: excitation energy (eV) =     526.9525
 Total energy for state  38:                  -668.91493989 au
    Multiplicity: Singlet
    Trans. Mom.: -0.0061 X  -0.0007 Y   0.0011 Z
    Strength   :     0.0004975222
    D(    4) --> V(   37) amplitude =  0.9123

 Excited state  39: excitation energy (eV) =     527.0505
 Total energy for state  39:                  -668.91133853 au
    Multiplicity: Singlet
    Trans. Mom.: -0.0019 X   0.0158 Y  -0.0020 Z
    Strength   :     0.0033143412
    D(    4) --> V(   37) amplitude = -0.2732
    D(    4) --> V(   38) amplitude =  0.2758
    D(    4) --> V(   39) amplitude =  0.7889
    D(    4) --> V(   43) amplitude =  0.2403

 Excited state  40: excitation energy (eV) =     527.2508
 Total energy for state  40:                  -668.90397751 au
    Multiplicity: Singlet
    Trans. Mom.:  0.0079 X   0.0039 Y  -0.0045 Z
    Strength   :     0.0012659651
    D(    4) --> V(   40) amplitude =  0.9331

 Excited state  41: excitation energy (eV) =     527.3132
 Total energy for state  41:                  -668.90168217 au
    Multiplicity: Singlet
    Trans. Mom.:  0.0051 X   0.0075 Y   0.0070 Z
    Strength   :     0.0016988540
    D(    4) --> V(   41) amplitude =  0.9441

 Excited state  42: excitation energy (eV) =     527.4663
 Total energy for state  42:                  -668.89605593 au
    Multiplicity: Singlet
    Trans. Mom.:  0.0031 X   0.0155 Y   0.0044 Z
    Strength   :     0.0034656260
    D(    4) --> V(   39) amplitude = -0.2535
    D(    4) --> V(   41) amplitude = -0.2217
    D(    4) --> V(   42) amplitude =  0.4396
    D(    4) --> V(   43) amplitude =  0.6807
    D(    4) --> V(   49) amplitude =  0.2488

 Excited state  43: excitation energy (eV) =     527.5867
 Total energy for state  43:                  -668.89163160 au
    Multiplicity: Singlet
    Trans. Mom.: -0.0017 X  -0.0040 Y   0.0023 Z
    Strength   :     0.0003131344
    D(    4) --> V(   39) amplitude =  0.2969
    D(    4) --> V(   42) amplitude =  0.8440
    D(    4) --> V(   43) amplitude = -0.3853

 Excited state  44: excitation energy (eV) =     527.8325
 Total energy for state  44:                  -668.88259877 au
    Multiplicity: Singlet
    Trans. Mom.:  0.0129 X   0.0104 Y   0.0017 Z
    Strength   :     0.0036119880
    D(    4) --> V(   43) amplitude = -0.3629
    D(    4) --> V(   44) amplitude =  0.6494
    D(    4) --> V(   45) amplitude = -0.4044
    D(    4) --> V(   46) amplitude =  0.3481

 Excited state  45: excitation energy (eV) =     527.9378
 Total energy for state  45:                  -668.87872849 au
    Multiplicity: Singlet
    Trans. Mom.:  0.0003 X  -0.0128 Y   0.0073 Z
    Strength   :     0.0027909679
    D(    4) --> V(   43) amplitude =  0.3165
    D(    4) --> V(   44) amplitude =  0.6261
    D(    4) --> V(   46) amplitude = -0.3331
    D(    4) --> V(   48) amplitude =  0.4326
    D(    4) --> V(   49) amplitude = -0.3380

 Excited state  46: excitation energy (eV) =     528.0095
 Total energy for state  46:                  -668.87609606 au
    Multiplicity: Singlet
    Trans. Mom.: -0.0061 X   0.0051 Y  -0.0050 Z
    Strength   :     0.0011409343
    D(    4) --> V(   44) amplitude =  0.2942
    D(    4) --> V(   45) amplitude =  0.8521
    D(    4) --> V(   47) amplitude =  0.2281
    D(    4) --> V(   48) amplitude = -0.2254

 Excited state  47: excitation energy (eV) =     528.2047
 Total energy for state  47:                  -668.86892002 au
    Multiplicity: Singlet
    Trans. Mom.: -0.0029 X  -0.0035 Y   0.0121 Z
    Strength   :     0.0021511766
    D(    4) --> V(   46) amplitude =  0.7357
    D(    4) --> V(   47) amplitude =  0.3182
    D(    4) --> V(   48) amplitude =  0.4280
    D(    4) --> V(   50) amplitude = -0.2530

 Excited state  48: excitation energy (eV) =     528.2433
 Total energy for state  48:                  -668.86750235 au
    Multiplicity: Singlet
    Trans. Mom.: -0.0021 X   0.0021 Y  -0.0019 Z
    Strength   :     0.0001602891
    D(    4) --> V(   45) amplitude = -0.2227
    D(    4) --> V(   46) amplitude = -0.2629
    D(    4) --> V(   47) amplitude =  0.8917
    D(    4) --> V(   48) amplitude = -0.2396

 Excited state  49: excitation energy (eV) =     528.5121
 Total energy for state  49:                  -668.85762339 au
    Multiplicity: Singlet
    Trans. Mom.:  0.0043 X   0.0017 Y  -0.0011 Z
    Strength   :     0.0002861778
    D(    4) --> V(   48) amplitude =  0.5671
    D(    4) --> V(   49) amplitude =  0.7648

 Excited state  50: excitation energy (eV) =     528.7077
 Total energy for state  50:                  -668.85043512 au
    Multiplicity: Singlet
    Trans. Mom.: -0.0026 X   0.0020 Y  -0.0095 Z
    Strength   :     0.0013013303
    D(    4) --> V(   49) amplitude = -0.2490
    D(    4) --> V(   50) amplitude =  0.8089
    D(    4) --> V(   51) amplitude =  0.4395

 Excited state  51: excitation energy (eV) =     528.8811
 Total energy for state  51:                  -668.84406536 au
    Multiplicity: Singlet
    Trans. Mom.: -0.0064 X   0.0021 Y  -0.0035 Z
    Strength   :     0.0007497795
    D(    4) --> V(   50) amplitude = -0.4551
    D(    4) --> V(   51) amplitude =  0.8604

 Excited state  52: excitation energy (eV) =     528.9903
 Total energy for state  52:                  -668.84004970 au
    Multiplicity: Singlet
    Trans. Mom.:  0.0011 X   0.0031 Y  -0.0004 Z
    Strength   :     0.0001393806
    D(    4) --> V(   52) amplitude =  0.8631
    D(    4) --> V(   53) amplitude =  0.4051

 Excited state  53: excitation energy (eV) =     529.1130
 Total energy for state  53:                  -668.83554385 au
    Multiplicity: Singlet
    Trans. Mom.:  0.0096 X   0.0021 Y  -0.0061 Z
    Strength   :     0.0017327458
    D(    4) --> V(   52) amplitude = -0.4483
    D(    4) --> V(   53) amplitude =  0.7616
    D(    4) --> V(   55) amplitude =  0.3038

 Excited state  54: excitation energy (eV) =     529.2566
 Total energy for state  54:                  -668.83026377 au
    Multiplicity: Singlet
    Trans. Mom.: -0.0050 X  -0.0067 Y  -0.0029 Z
    Strength   :     0.0010151053
    D(    4) --> V(   53) amplitude =  0.3907
    D(    4) --> V(   54) amplitude =  0.7422
    D(    4) --> V(   55) amplitude = -0.4829

 Excited state  55: excitation energy (eV) =     529.3491
 Total energy for state  55:                  -668.82686568 au
    Multiplicity: Singlet
    Trans. Mom.:  0.0028 X   0.0011 Y   0.0004 Z
    Strength   :     0.0001194031
    D(    4) --> V(   54) amplitude =  0.6221
    D(    4) --> V(   55) amplitude =  0.7343

 Excited state  56: excitation energy (eV) =     529.6360
 Total energy for state  56:                  -668.81632151 au
    Multiplicity: Singlet
    Trans. Mom.:  0.0008 X   0.0017 Y  -0.0011 Z
    Strength   :     0.0000622611
    D(    4) --> V(   56) amplitude =  0.9342
    D(    4) --> V(   57) amplitude =  0.3271

 Excited state  57: excitation energy (eV) =     529.7065
 Total energy for state  57:                  -668.81373318 au
    Multiplicity: Singlet
    Trans. Mom.: -0.0025 X  -0.0006 Y   0.0037 Z
    Strength   :     0.0002638423
    D(    4) --> V(   55) amplitude =  0.2702
    D(    4) --> V(   56) amplitude = -0.3022
    D(    4) --> V(   57) amplitude =  0.8918

 Excited state  58: excitation energy (eV) =     529.9965
 Total energy for state  58:                  -668.80307459 au
    Multiplicity: Singlet
    Trans. Mom.: -0.0072 X  -0.0022 Y  -0.0069 Z
    Strength   :     0.0013605177
    D(    4) --> V(   58) amplitude =  0.9309
    D(    4) --> V(   59) amplitude = -0.2542

 Excited state  59: excitation energy (eV) =     530.0988
 Total energy for state  59:                  -668.79931453 au
    Multiplicity: Singlet
    Trans. Mom.: -0.0035 X  -0.0042 Y   0.0009 Z
    Strength   :     0.0003968627
    D(    4) --> V(   58) amplitude =  0.2688
    D(    4) --> V(   59) amplitude =  0.9366

 Excited state  60: excitation energy (eV) =     530.3038
 Total energy for state  60:                  -668.79178222 au
    Multiplicity: Singlet
    Trans. Mom.: -0.0061 X   0.0053 Y   0.0015 Z
    Strength   :     0.0008818412
    D(    4) --> V(   60) amplitude =  0.9248
    D(    4) --> V(   62) amplitude =  0.2519

 Excited state  61: excitation energy (eV) =     530.4082
 Total energy for state  61:                  -668.78794568 au
    Multiplicity: Singlet
    Trans. Mom.: -0.0021 X  -0.0036 Y  -0.0061 Z
    Strength   :     0.0007096211
    D(    4) --> V(   60) amplitude = -0.2377
    D(    4) --> V(   61) amplitude =  0.9212
    D(    4) --> V(   63) amplitude =  0.2215

 Excited state  62: excitation energy (eV) =     530.6201
 Total energy for state  62:                  -668.78015668 au
    Multiplicity: Singlet
    Trans. Mom.: -0.0007 X   0.0006 Y   0.0044 Z
    Strength   :     0.0002638650
    D(    4) --> V(   60) amplitude = -0.2138
    D(    4) --> V(   62) amplitude =  0.8902
    D(    4) --> V(   63) amplitude =  0.2387

 Excited state  63: excitation energy (eV) =     530.7918
 Total energy for state  63:                  -668.77384710 au
    Multiplicity: Singlet
    Trans. Mom.: -0.0060 X   0.0005 Y  -0.0033 Z
    Strength   :     0.0006136897
    D(    4) --> V(   62) amplitude = -0.2263
    D(    4) --> V(   63) amplitude =  0.8939

 Excited state  64: excitation energy (eV) =     530.9920
 Total energy for state  64:                  -668.76648993 au
    Multiplicity: Singlet
    Trans. Mom.:  0.0015 X   0.0082 Y  -0.0017 Z
    Strength   :     0.0009430779
    D(    4) --> V(   64) amplitude =  0.9310

 Excited state  65: excitation energy (eV) =     531.2886
 Total energy for state  65:                  -668.75558878 au
    Multiplicity: Singlet
    Trans. Mom.: -0.0150 X   0.0017 Y  -0.0031 Z
    Strength   :     0.0031047054
    D(    4) --> V(   63) amplitude = -0.2453
    D(    4) --> V(   65) amplitude =  0.9332

 Excited state  66: excitation energy (eV) =     531.7058
 Total energy for state  66:                  -668.74025836 au
    Multiplicity: Singlet
    Trans. Mom.: -0.0010 X   0.0090 Y   0.0054 Z
    Strength   :     0.0014602697
    D(    4) --> V(   66) amplitude =  0.8659
    D(    4) --> V(   67) amplitude =  0.3812
    D(    4) --> V(   69) amplitude =  0.2122

 Excited state  67: excitation energy (eV) =     531.8292
 Total energy for state  67:                  -668.73572345 au
    Multiplicity: Singlet
    Trans. Mom.:  0.0047 X  -0.0057 Y   0.0052 Z
    Strength   :     0.0010680717
    D(    4) --> V(   68) amplitude =  0.9617

 Excited state  68: excitation energy (eV) =     531.8426
 Total energy for state  68:                  -668.73523008 au
    Multiplicity: Singlet
    Trans. Mom.: -0.0002 X  -0.0010 Y  -0.0046 Z
    Strength   :     0.0002851734
    D(    4) --> V(   66) amplitude = -0.3667
    D(    4) --> V(   67) amplitude =  0.8885

 Excited state  69: excitation energy (eV) =     532.0469
 Total energy for state  69:                  -668.72772401 au
    Multiplicity: Singlet
    Trans. Mom.: -0.0034 X   0.0015 Y   0.0047 Z
    Strength   :     0.0004639251
    D(    4) --> V(   66) amplitude = -0.2631
    D(    4) --> V(   69) amplitude =  0.9385

 Excited state  70: excitation energy (eV) =     532.4372
 Total energy for state  70:                  -668.71338146 au
    Multiplicity: Singlet
    Trans. Mom.:  0.0087 X  -0.0011 Y   0.0017 Z
    Strength   :     0.0010520731
    D(    4) --> V(   70) amplitude =  0.9130
    D(    4) --> V(   71) amplitude =  0.3248

 Excited state  71: excitation energy (eV) =     532.5287
 Total energy for state  71:                  -668.71001801 au
    Multiplicity: Singlet
    Trans. Mom.:  0.0056 X  -0.0026 Y   0.0077 Z
    Strength   :     0.0012628921
    D(    4) --> V(   70) amplitude = -0.3623
    D(    4) --> V(   71) amplitude =  0.8703
    D(    4) --> V(   72) amplitude =  0.2360

 Excited state  72: excitation energy (eV) =     532.6147
 Total energy for state  72:                  -668.70685610 au
    Multiplicity: Singlet
    Trans. Mom.:  0.0053 X  -0.0031 Y   0.0040 Z
    Strength   :     0.0007017399
    D(    4) --> V(   71) amplitude = -0.2872
    D(    4) --> V(   72) amplitude =  0.8621
    D(    4) --> V(   73) amplitude = -0.3228

 Excited state  73: excitation energy (eV) =     532.8714
 Total energy for state  73:                  -668.69742437 au
    Multiplicity: Singlet
    Trans. Mom.: -0.0060 X  -0.0007 Y   0.0003 Z
    Strength   :     0.0004834335
    D(    4) --> V(   72) amplitude =  0.3503
    D(    4) --> V(   73) amplitude =  0.7962
    D(    4) --> V(   74) amplitude =  0.4139

 Excited state  74: excitation energy (eV) =     533.0907
 Total energy for state  74:                  -668.68936582 au
    Multiplicity: Singlet
    Trans. Mom.: -0.0023 X   0.0043 Y   0.0098 Z
    Strength   :     0.0015625181
    D(    4) --> V(   73) amplitude = -0.3640
    D(    4) --> V(   74) amplitude =  0.6170
    D(    4) --> V(   75) amplitude =  0.5231
    D(    4) --> V(   76) amplitude = -0.4287

 Excited state  75: excitation energy (eV) =     533.1962
 Total energy for state  75:                  -668.68548722 au
    Multiplicity: Singlet
    Trans. Mom.: -0.0020 X   0.0027 Y   0.0063 Z
    Strength   :     0.0006724442
    D(    4) --> V(   74) amplitude = -0.5697
    D(    4) --> V(   75) amplitude =  0.7865

 Excited state  76: excitation energy (eV) =     533.3665
 Total energy for state  76:                  -668.67922956 au
    Multiplicity: Singlet
    Trans. Mom.:  0.0048 X  -0.0001 Y  -0.0060 Z
    Strength   :     0.0007742766
    D(    4) --> V(   73) amplitude = -0.2810
    D(    4) --> V(   74) amplitude =  0.2760
    D(    4) --> V(   75) amplitude =  0.2192
    D(    4) --> V(   76) amplitude =  0.8634

 Excited state  77: excitation energy (eV) =     533.7860
 Total energy for state  77:                  -668.66381236 au
    Multiplicity: Singlet
    Trans. Mom.:  0.0015 X  -0.0050 Y   0.0009 Z
    Strength   :     0.0003654223
    D(    4) --> V(   77) amplitude =  0.9569

 Excited state  78: excitation energy (eV) =     534.0751
 Total energy for state  78:                  -668.65318943 au
    Multiplicity: Singlet
    Trans. Mom.: -0.0070 X  -0.0060 Y  -0.0002 Z
    Strength   :     0.0011198673
    D(    4) --> V(   78) amplitude =  0.8902
    D(    4) --> V(   79) amplitude =  0.3458

 Excited state  79: excitation energy (eV) =     534.1816
 Total energy for state  79:                  -668.64927466 au
    Multiplicity: Singlet
    Trans. Mom.:  0.0005 X   0.0002 Y  -0.0005 Z
    Strength   :     0.0000069145
    D(    4) --> V(   78) amplitude = -0.3656
    D(    4) --> V(   79) amplitude =  0.9249

 Excited state  80: excitation energy (eV) =     534.3718
 Total energy for state  80:                  -668.64228494 au
    Multiplicity: Singlet
    Trans. Mom.: -0.0051 X   0.0042 Y  -0.0128 Z
    Strength   :     0.0027033853
    D(    4) --> V(   80) amplitude =  0.9392
    D(    4) --> V(   81) amplitude = -0.2815

 Excited state  81: excitation energy (eV) =     534.7674
 Total energy for state  81:                  -668.62774858 au
    Multiplicity: Singlet
    Trans. Mom.: -0.0005 X   0.0002 Y   0.0040 Z
    Strength   :     0.0002129945
    D(    4) --> V(   80) amplitude =  0.2966
    D(    4) --> V(   81) amplitude =  0.9303

 Excited state  82: excitation energy (eV) =     535.2103
 Total energy for state  82:                  -668.61147232 au
    Multiplicity: Singlet
    Trans. Mom.: -0.0047 X  -0.0055 Y   0.0007 Z
    Strength   :     0.0006902544
    D(    4) --> V(   82) amplitude =  0.9597

 Excited state  83: excitation energy (eV) =     535.3785
 Total energy for state  83:                  -668.60529082 au
    Multiplicity: Singlet
    Trans. Mom.:  0.0011 X  -0.0012 Y   0.0018 Z
    Strength   :     0.0000767691
    D(    4) --> V(   83) amplitude =  0.9687

 Excited state  84: excitation energy (eV) =     535.6412
 Total energy for state  84:                  -668.59563699 au
    Multiplicity: Singlet
    Trans. Mom.:  0.0004 X  -0.0022 Y  -0.0046 Z
    Strength   :     0.0003467308
    D(    4) --> V(   84) amplitude =  0.9528

 Excited state  85: excitation energy (eV) =     535.8225
 Total energy for state  85:                  -668.58897168 au
    Multiplicity: Singlet
    Trans. Mom.: -0.0177 X   0.0067 Y   0.0101 Z
    Strength   :     0.0060362232
    D(    4) --> V(   85) amplitude =  0.9400

 Excited state  86: excitation energy (eV) =     536.1441
 Total energy for state  86:                  -668.57715451 au
    Multiplicity: Singlet
    Trans. Mom.:  0.0004 X   0.0013 Y  -0.0011 Z
    Strength   :     0.0000399595
    D(    4) --> V(   85) amplitude =  0.2217
    D(    4) --> V(   86) amplitude =  0.9625

 Excited state  87: excitation energy (eV) =     536.3648
 Total energy for state  87:                  -668.56904173 au
    Multiplicity: Singlet
    Trans. Mom.:  0.0069 X  -0.0013 Y  -0.0036 Z
    Strength   :     0.0008127753
    D(    4) --> V(   87) amplitude =  0.9747

 Excited state  88: excitation energy (eV) =     536.6084
 Total energy for state  88:                  -668.56009009 au
    Multiplicity: Singlet
    Trans. Mom.: -0.0016 X  -0.0026 Y  -0.0025 Z
    Strength   :     0.0002056416
    D(    4) --> V(   88) amplitude =  0.9314
    D(    4) --> V(   89) amplitude =  0.2307

 Excited state  89: excitation energy (eV) =     536.7157
 Total energy for state  89:                  -668.55614666 au
    Multiplicity: Singlet
    Trans. Mom.:  0.0056 X   0.0028 Y   0.0024 Z
    Strength   :     0.0005926679
    D(    4) --> V(   88) amplitude = -0.2871
    D(    4) --> V(   89) amplitude =  0.8593
    D(    4) --> V(   90) amplitude =  0.3892

 Excited state  90: excitation energy (eV) =     536.8065
 Total energy for state  90:                  -668.55281145 au
    Multiplicity: Singlet
    Trans. Mom.:  0.0009 X  -0.0002 Y   0.0014 Z
    Strength   :     0.0000367912
    D(    4) --> V(   89) amplitude = -0.4203
    D(    4) --> V(   90) amplitude =  0.8885

 Excited state  91: excitation energy (eV) =     537.0443
 Total energy for state  91:                  -668.54407349 au
    Multiplicity: Singlet
    Trans. Mom.:  0.0032 X   0.0079 Y  -0.0047 Z
    Strength   :     0.0012462305
    D(    4) --> V(   91) amplitude =  0.9262
    D(    4) --> V(   92) amplitude = -0.2778

 Excited state  92: excitation energy (eV) =     537.2237
 Total energy for state  92:                  -668.53747913 au
    Multiplicity: Singlet
    Trans. Mom.: -0.0058 X  -0.0029 Y  -0.0031 Z
    Strength   :     0.0006865702
    D(    4) --> V(   91) amplitude =  0.2906
    D(    4) --> V(   92) amplitude =  0.9433

 Excited state  93: excitation energy (eV) =     537.5566
 Total energy for state  93:                  -668.52524692 au
    Multiplicity: Singlet
    Trans. Mom.: -0.0070 X   0.0009 Y   0.0045 Z
    Strength   :     0.0009359906
    D(    4) --> V(   93) amplitude =  0.7710
    D(    4) --> V(   94) amplitude = -0.5844

 Excited state  94: excitation energy (eV) =     537.5922
 Total energy for state  94:                  -668.52393608 au
    Multiplicity: Singlet
    Trans. Mom.:  0.0048 X   0.0020 Y  -0.0044 Z
    Strength   :     0.0006077505
    D(    4) --> V(   93) amplitude =  0.6272
    D(    4) --> V(   94) amplitude =  0.7439

 Excited state  95: excitation energy (eV) =     537.8244
 Total energy for state  95:                  -668.51540436 au
    Multiplicity: Singlet
    Trans. Mom.: -0.0055 X   0.0045 Y  -0.0045 Z
    Strength   :     0.0009448474
    D(    4) --> V(   94) amplitude = -0.2318
    D(    4) --> V(   95) amplitude =  0.9497

 Excited state  96: excitation energy (eV) =     538.1379
 Total energy for state  96:                  -668.50388329 au
    Multiplicity: Singlet
    Trans. Mom.:  0.0033 X  -0.0004 Y   0.0028 Z
    Strength   :     0.0002504907
    D(    4) --> V(   96) amplitude =  0.9513

 Excited state  97: excitation energy (eV) =     538.2731
 Total energy for state  97:                  -668.49891556 au
    Multiplicity: Singlet
    Trans. Mom.: -0.0015 X   0.0032 Y  -0.0086 Z
    Strength   :     0.0011374432
    D(    4) --> V(   97) amplitude =  0.9304
    D(    4) --> V(   98) amplitude =  0.2455

 Excited state  98: excitation energy (eV) =     538.3688
 Total energy for state  98:                  -668.49539941 au
    Multiplicity: Singlet
    Trans. Mom.:  0.0039 X   0.0054 Y  -0.0075 Z
    Strength   :     0.0013175960
    D(    4) --> V(   96) amplitude =  0.2229
    D(    4) --> V(   97) amplitude = -0.3036
    D(    4) --> V(   98) amplitude =  0.8749
    D(    4) --> V(   99) amplitude =  0.2122

 Excited state  99: excitation energy (eV) =     538.6002
 Total energy for state  99:                  -668.48689515 au
    Multiplicity: Singlet
    Trans. Mom.:  0.0014 X  -0.0043 Y  -0.0018 Z
    Strength   :     0.0003077859
    D(    4) --> V(   98) amplitude = -0.2665
    D(    4) --> V(   99) amplitude =  0.8796
    D(    4) --> V(  100) amplitude =  0.3311

 Excited state 100: excitation energy (eV) =     538.8541
 Total energy for state 100:                  -668.47756396 au
    Multiplicity: Singlet
    Trans. Mom.: -0.0066 X  -0.0060 Y  -0.0050 Z
    Strength   :     0.0013909943
    D(    4) --> V(   99) amplitude = -0.3475
    D(    4) --> V(  100) amplitude =  0.9037

 Excited state 101: excitation energy (eV) =     538.9855
 Total energy for state 101:                  -668.47273488 au
    Multiplicity: Singlet
    Trans. Mom.:  0.0034 X  -0.0018 Y   0.0007 Z
    Strength   :     0.0002032962
    D(    4) --> V(  101) amplitude =  0.7779
    D(    4) --> V(  102) amplitude =  0.5253

 Excited state 102: excitation energy (eV) =     539.0279
 Total energy for state 102:                  -668.47117720 au
    Multiplicity: Singlet
    Trans. Mom.:  0.0037 X   0.0020 Y   0.0009 Z
    Strength   :     0.0002416838
    D(    4) --> V(  101) amplitude = -0.5626
    D(    4) --> V(  102) amplitude =  0.8018

 Excited state 103: excitation energy (eV) =     539.1677
 Total energy for state 103:                  -668.46603714 au
    Multiplicity: Singlet
    Trans. Mom.:  0.0094 X  -0.0067 Y  -0.0031 Z
    Strength   :     0.0018898520
    D(    4) --> V(  103) amplitude =  0.8097
    D(    4) --> V(  104) amplitude =  0.3405
    D(    4) --> V(  105) amplitude = -0.3034

 Excited state 104: excitation energy (eV) =     539.4650
 Total energy for state 104:                  -668.45511473 au
    Multiplicity: Singlet
    Trans. Mom.: -0.0006 X   0.0078 Y   0.0023 Z
    Strength   :     0.0008791180
    D(    4) --> V(  103) amplitude = -0.4364
    D(    4) --> V(  104) amplitude =  0.8512

 Excited state 105: excitation energy (eV) =     539.5985
 Total energy for state 105:                  -668.45020869 au
    Multiplicity: Singlet
    Trans. Mom.: -0.0038 X   0.0006 Y  -0.0032 Z
    Strength   :     0.0003330491
    D(    4) --> V(  104) amplitude =  0.2845
    D(    4) --> V(  105) amplitude =  0.8996

 Excited state 106: excitation energy (eV) =     539.8635
 Total energy for state 106:                  -668.44046810 au
    Multiplicity: Singlet
    Trans. Mom.: -0.0026 X   0.0023 Y  -0.0014 Z
    Strength   :     0.0001820411
    D(    4) --> V(  106) amplitude =  0.9585

 Excited state 107: excitation energy (eV) =     539.9999
 Total energy for state 107:                  -668.43545579 au
    Multiplicity: Singlet
    Trans. Mom.: -0.0009 X  -0.0040 Y   0.0023 Z
    Strength   :     0.0002894013
    D(    4) --> V(  107) amplitude =  0.9638

 Excited state 108: excitation energy (eV) =     540.1293
 Total energy for state 108:                  -668.43070032 au
    Multiplicity: Singlet
    Trans. Mom.:  0.0011 X  -0.0013 Y  -0.0061 Z
    Strength   :     0.0005329143
    D(    4) --> V(  108) amplitude =  0.8508
    D(    4) --> V(  109) amplitude =  0.4734

 Excited state 109: excitation energy (eV) =     540.3169
 Total energy for state 109:                  -668.42380588 au
    Multiplicity: Singlet
    Trans. Mom.: -0.0015 X   0.0038 Y  -0.0014 Z
    Strength   :     0.0002484795
    D(    4) --> V(  108) amplitude = -0.5116
    D(    4) --> V(  109) amplitude =  0.8073

 Excited state 110: excitation energy (eV) =     540.6143
 Total energy for state 110:                  -668.41287642 au
    Multiplicity: Singlet
    Trans. Mom.:  0.0057 X  -0.0012 Y  -0.0013 Z
    Strength   :     0.0004772084
    D(    4) --> V(  111) amplitude =  0.7743
    D(    4) --> V(  112) amplitude = -0.5468

 Excited state 111: excitation energy (eV) =     540.6553
 Total energy for state 111:                  -668.41137173 au
    Multiplicity: Singlet
    Trans. Mom.:  0.0023 X   0.0049 Y  -0.0038 Z
    Strength   :     0.0005744400
    D(    4) --> V(  110) amplitude =  0.9495
    D(    4) --> V(  113) amplitude = -0.2510

 Excited state 112: excitation energy (eV) =     540.7912
 Total energy for state 112:                  -668.40637493 au
    Multiplicity: Singlet
    Trans. Mom.:  0.0029 X  -0.0035 Y   0.0052 Z
    Strength   :     0.0006399181
    D(    4) --> V(  111) amplitude =  0.4356
    D(    4) --> V(  112) amplitude =  0.7883
    D(    4) --> V(  113) amplitude =  0.4007

 Excited state 113: excitation energy (eV) =     540.9267
 Total energy for state 113:                  -668.40139731 au
    Multiplicity: Singlet
    Trans. Mom.:  0.0025 X  -0.0049 Y  -0.0029 Z
    Strength   :     0.0005130911
    D(    4) --> V(  110) amplitude =  0.2738
    D(    4) --> V(  111) amplitude = -0.3693
    D(    4) --> V(  112) amplitude = -0.2275
    D(    4) --> V(  113) amplitude =  0.8246

 Excited state 114: excitation energy (eV) =     541.1569
 Total energy for state 114:                  -668.39293623 au
    Multiplicity: Singlet
    Trans. Mom.:  0.0068 X  -0.0019 Y  -0.0091 Z
    Strength   :     0.0017661477
    D(    4) --> V(  115) amplitude =  0.7702
    D(    4) --> V(  116) amplitude =  0.5987

 Excited state 115: excitation energy (eV) =     541.3110
 Total energy for state 115:                  -668.38727208 au
    Multiplicity: Singlet
    Trans. Mom.:  0.0001 X  -0.0040 Y  -0.0023 Z
    Strength   :     0.0002766457
    D(    4) --> V(  114) amplitude =  0.6730
    D(    4) --> V(  115) amplitude = -0.4985
    D(    4) --> V(  116) amplitude =  0.5002

 Excited state 116: excitation energy (eV) =     541.3855
 Total energy for state 116:                  -668.38453463 au
    Multiplicity: Singlet
    Trans. Mom.:  0.0013 X   0.0066 Y   0.0026 Z
    Strength   :     0.0006963148
    D(    4) --> V(  114) amplitude =  0.7098
    D(    4) --> V(  115) amplitude =  0.3368
    D(    4) --> V(  116) amplitude = -0.5885

 Excited state 117: excitation energy (eV) =     541.6018
 Total energy for state 117:                  -668.37658567 au
    Multiplicity: Singlet
    Trans. Mom.: -0.0033 X   0.0051 Y  -0.0056 Z
    Strength   :     0.0009155038
    D(    4) --> V(  117) amplitude =  0.5181
    D(    4) --> V(  118) amplitude =  0.8061

 Excited state 118: excitation energy (eV) =     541.6078
 Total energy for state 118:                  -668.37636849 au
    Multiplicity: Singlet
    Trans. Mom.: -0.0015 X  -0.0030 Y   0.0049 Z
    Strength   :     0.0004620398
    D(    4) --> V(  117) amplitude =  0.7983
    D(    4) --> V(  118) amplitude = -0.5159
    D(    4) --> V(  119) amplitude = -0.2187

 Excited state 119: excitation energy (eV) =     542.0262
 Total energy for state 119:                  -668.36099102 au
    Multiplicity: Singlet
    Trans. Mom.:  0.0006 X  -0.0044 Y   0.0021 Z
    Strength   :     0.0003183637
    D(    4) --> V(  117) amplitude =  0.2525
    D(    4) --> V(  119) amplitude =  0.8398
    D(    4) --> V(  121) amplitude = -0.4331

 Excited state 120: excitation energy (eV) =     542.0511
 Total energy for state 120:                  -668.36007603 au
    Multiplicity: Singlet
    Trans. Mom.:  0.0040 X   0.0037 Y  -0.0085 Z
    Strength   :     0.0013652484
    D(    4) --> V(  119) amplitude =  0.3659
    D(    4) --> V(  120) amplitude =  0.5603
    D(    4) --> V(  121) amplitude =  0.6862

 Excited state 121: excitation energy (eV) =     542.2180
 Total energy for state 121:                  -668.35394153 au
    Multiplicity: Singlet
    Trans. Mom.: -0.0028 X   0.0019 Y   0.0022 Z
    Strength   :     0.0002123919
    D(    4) --> V(  119) amplitude = -0.2464
    D(    4) --> V(  120) amplitude =  0.7985
    D(    4) --> V(  121) amplitude = -0.4720

 Excited state 122: excitation energy (eV) =     542.2907
 Total energy for state 122:                  -668.35126996 au
    Multiplicity: Singlet
    Trans. Mom.: -0.0005 X   0.0004 Y  -0.0059 Z
    Strength   :     0.0004604951
    D(    4) --> V(  122) amplitude =  0.9606

 Excited state 123: excitation energy (eV) =     542.6127
 Total energy for state 123:                  -668.33943634 au
    Multiplicity: Singlet
    Trans. Mom.: -0.0001 X   0.0030 Y   0.0005 Z
    Strength   :     0.0001205048
    D(    4) --> V(  123) amplitude =  0.9047
    D(    4) --> V(  124) amplitude =  0.3818

 Excited state 124: excitation energy (eV) =     542.7202
 Total energy for state 124:                  -668.33548548 au
    Multiplicity: Singlet
    Trans. Mom.: -0.0051 X   0.0051 Y  -0.0013 Z
    Strength   :     0.0007110610
    D(    4) --> V(  123) amplitude = -0.3536
    D(    4) --> V(  124) amplitude =  0.8492
    D(    4) --> V(  125) amplitude = -0.2752

 Excited state 125: excitation energy (eV) =     542.8967
 Total energy for state 125:                  -668.32900035 au
    Multiplicity: Singlet
    Trans. Mom.:  0.0012 X  -0.0022 Y  -0.0027 Z
    Strength   :     0.0001802765
    D(    4) --> V(  124) amplitude =  0.2327
    D(    4) --> V(  125) amplitude =  0.9497

 Excited state 126: excitation energy (eV) =     542.9940
 Total energy for state 126:                  -668.32542571 au
    Multiplicity: Singlet
    Trans. Mom.:  0.0031 X  -0.0040 Y  -0.0044 Z
    Strength   :     0.0005873237
    D(    4) --> V(  126) amplitude =  0.9683

 Excited state 127: excitation energy (eV) =     543.1405
 Total energy for state 127:                  -668.32004051 au
    Multiplicity: Singlet
    Trans. Mom.:  0.0036 X  -0.0063 Y   0.0016 Z
    Strength   :     0.0007260383
    D(    4) --> V(  127) amplitude =  0.9637

 Excited state 128: excitation energy (eV) =     543.3336
 Total energy for state 128:                  -668.31294336 au
    Multiplicity: Singlet
    Trans. Mom.:  0.0013 X  -0.0002 Y  -0.0051 Z
    Strength   :     0.0003620072
    D(    4) --> V(  128) amplitude =  0.9765

 Excited state 129: excitation energy (eV) =     543.6807
 Total energy for state 129:                  -668.30019069 au
    Multiplicity: Singlet
    Trans. Mom.: -0.0033 X  -0.0044 Y  -0.0056 Z
    Strength   :     0.0008162539
    D(    4) --> V(  129) amplitude =  0.9266
    D(    4) --> V(  130) amplitude =  0.3260

 Excited state 130: excitation energy (eV) =     543.8005
 Total energy for state 130:                  -668.29578630 au
    Multiplicity: Singlet
    Trans. Mom.:  0.0074 X  -0.0039 Y  -0.0034 Z
    Strength   :     0.0010831337
    D(    4) --> V(  129) amplitude = -0.2993
    D(    4) --> V(  130) amplitude =  0.8998
    D(    4) --> V(  131) amplitude = -0.2370

 Excited state 131: excitation energy (eV) =     543.9823
 Total energy for state 131:                  -668.28910447 au
    Multiplicity: Singlet
    Trans. Mom.: -0.0032 X   0.0033 Y   0.0015 Z
    Strength   :     0.0003113622
    D(    4) --> V(  131) amplitude =  0.9612

 Excited state 132: excitation energy (eV) =     544.4836
 Total energy for state 132:                  -668.27068223 au
    Multiplicity: Singlet
    Trans. Mom.:  0.0032 X  -0.0022 Y  -0.0020 Z
    Strength   :     0.0002512071
    D(    4) --> V(  132) amplitude =  0.9530
    D(    4) --> V(  133) amplitude = -0.2145

 Excited state 133: excitation energy (eV) =     544.7745
 Total energy for state 133:                  -668.25999225 au
    Multiplicity: Singlet
    Trans. Mom.: -0.0007 X   0.0025 Y  -0.0019 Z
    Strength   :     0.0001391860
    D(    4) --> V(  132) amplitude =  0.2228
    D(    4) --> V(  133) amplitude =  0.9516

 Excited state 134: excitation energy (eV) =     544.9375
 Total energy for state 134:                  -668.25400223 au
    Multiplicity: Singlet
    Trans. Mom.:  0.0053 X  -0.0061 Y   0.0085 Z
    Strength   :     0.0018350508
    D(    4) --> V(  134) amplitude =  0.7556
    D(    4) --> V(  135) amplitude = -0.4545
    D(    4) --> V(  136) amplitude = -0.3840

 Excited state 135: excitation energy (eV) =     545.0556
 Total energy for state 135:                  -668.24966063 au
    Multiplicity: Singlet
    Trans. Mom.:  0.0062 X   0.0090 Y   0.0026 Z
    Strength   :     0.0016856243
    D(    4) --> V(  134) amplitude =  0.5878
    D(    4) --> V(  135) amplitude =  0.5479
    D(    4) --> V(  136) amplitude =  0.4693
    D(    4) --> V(  137) amplitude =  0.2458

 Excited state 136: excitation energy (eV) =     545.1728
 Total energy for state 136:                  -668.24535530 au
    Multiplicity: Singlet
    Trans. Mom.:  0.0060 X   0.0074 Y   0.0030 Z
    Strength   :     0.0013296007
    D(    4) --> V(  135) amplitude = -0.6415
    D(    4) --> V(  136) amplitude =  0.7141

 Excited state 137: excitation energy (eV) =     545.3967
 Total energy for state 137:                  -668.23712810 au
    Multiplicity: Singlet
    Trans. Mom.:  0.0030 X  -0.0006 Y   0.0056 Z
    Strength   :     0.0005500068
    D(    4) --> V(  134) amplitude = -0.2349
    D(    4) --> V(  136) amplitude = -0.2665
    D(    4) --> V(  137) amplitude =  0.9197

 Excited state 138: excitation energy (eV) =     545.5630
 Total energy for state 138:                  -668.23101739 au
    Multiplicity: Singlet
    Trans. Mom.:  0.0070 X   0.0018 Y  -0.0002 Z
    Strength   :     0.0006916871
    D(    4) --> V(  138) amplitude =  0.9628

 Excited state 139: excitation energy (eV) =     545.7813
 Total energy for state 139:                  -668.22299269 au
    Multiplicity: Singlet
    Trans. Mom.: -0.0003 X   0.0008 Y  -0.0023 Z
    Strength   :     0.0000808066
    D(    4) --> V(  139) amplitude =  0.9734

 Excited state 140: excitation energy (eV) =     546.2731
 Total energy for state 140:                  -668.20491914 au
    Multiplicity: Singlet
    Trans. Mom.: -0.0039 X  -0.0065 Y   0.0049 Z
    Strength   :     0.0010902329
    D(    4) --> V(  140) amplitude =  0.9393
    D(    4) --> V(  141) amplitude =  0.2127

 Excited state 141: excitation energy (eV) =     546.5040
 Total energy for state 141:                  -668.19643493 au
    Multiplicity: Singlet
    Trans. Mom.: -0.0088 X  -0.0013 Y  -0.0040 Z
    Strength   :     0.0012685213
    D(    4) --> V(  140) amplitude = -0.2637
    D(    4) --> V(  141) amplitude =  0.8964
    D(    4) --> V(  143) amplitude = -0.2364

 Excited state 142: excitation energy (eV) =     546.7367
 Total energy for state 142:                  -668.18788315 au
    Multiplicity: Singlet
    Trans. Mom.:  0.0029 X   0.0085 Y   0.0040 Z
    Strength   :     0.0012911468
    D(    4) --> V(  142) amplitude =  0.9614

 Excited state 143: excitation energy (eV) =     546.9112
 Total energy for state 143:                  -668.18146990 au
    Multiplicity: Singlet
    Trans. Mom.:  0.0098 X   0.0126 Y   0.0016 Z
    Strength   :     0.0034324790
    D(    4) --> V(  141) amplitude =  0.2775
    D(    4) --> V(  143) amplitude =  0.8103
    D(    4) --> V(  144) amplitude =  0.4577

 Excited state 144: excitation energy (eV) =     547.1243
 Total energy for state 144:                  -668.17363737 au
    Multiplicity: Singlet
    Trans. Mom.: -0.0077 X   0.0014 Y  -0.0038 Z
    Strength   :     0.0010074768
    D(    4) --> V(  143) amplitude = -0.3434
    D(    4) --> V(  144) amplitude =  0.7565
    D(    4) --> V(  145) amplitude = -0.4604

 Excited state 145: excitation energy (eV) =     547.2506
 Total energy for state 145:                  -668.16899944 au
    Multiplicity: Singlet
    Trans. Mom.:  0.0020 X   0.0052 Y   0.0016 Z
    Strength   :     0.0004561481
    D(    4) --> V(  143) amplitude = -0.3245
    D(    4) --> V(  144) amplitude =  0.4316
    D(    4) --> V(  145) amplitude =  0.6869
    D(    4) --> V(  146) amplitude =  0.2988
    D(    4) --> V(  147) amplitude = -0.3071

 Excited state 146: excitation energy (eV) =     547.4456
 Total energy for state 146:                  -668.16183163 au
    Multiplicity: Singlet
    Trans. Mom.:  0.0070 X   0.0109 Y  -0.0011 Z
    Strength   :     0.0022865732
    D(    4) --> V(  146) amplitude =  0.8420
    D(    4) --> V(  147) amplitude =  0.2580
    D(    4) --> V(  148) amplitude = -0.3361

 Excited state 147: excitation energy (eV) =     547.4896
 Total energy for state 147:                  -668.16021503 au
    Multiplicity: Singlet
    Trans. Mom.:  0.0011 X   0.0035 Y  -0.0012 Z
    Strength   :     0.0001977497
    D(    4) --> V(  145) amplitude =  0.4780
    D(    4) --> V(  146) amplitude = -0.2592
    D(    4) --> V(  147) amplitude =  0.7620
    D(    4) --> V(  148) amplitude = -0.2811

 Excited state 148: excitation energy (eV) =     547.9031
 Total energy for state 148:                  -668.14501961 au
    Multiplicity: Singlet
    Trans. Mom.: -0.0009 X  -0.0060 Y  -0.0010 Z
    Strength   :     0.0005029910
    D(    4) --> V(  146) amplitude =  0.2433
    D(    4) --> V(  147) amplitude =  0.4296
    D(    4) --> V(  148) amplitude =  0.8475

 Excited state 149: excitation energy (eV) =     548.0817
 Total energy for state 149:                  -668.13845692 au
    Multiplicity: Singlet
    Trans. Mom.:  0.0041 X   0.0033 Y   0.0036 Z
    Strength   :     0.0005436188
    D(    4) --> V(  149) amplitude =  0.8529
    D(    4) --> V(  150) amplitude =  0.3579

 Excited state 150: excitation energy (eV) =     548.1925
 Total energy for state 150:                  -668.13438242 au
    Multiplicity: Singlet
    Trans. Mom.:  0.0086 X   0.0015 Y   0.0012 Z
    Strength   :     0.0010485663
    D(    4) --> V(  149) amplitude = -0.3617
    D(    4) --> V(  150) amplitude =  0.9068

 ---------------------------------------------------
  SETman timing summary (seconds)
  CPU time           1359171.64s
  System time              0.03s
  Wall time           680305.86s
================================================================================
                             Excited State Analysis
================================================================================

  Ground State (Reference) :
  -------------------------
    NOs
      Occupation of frontier NOs:
         0.0000   0.0000   2.0000   2.0000
      Number of electrons: 90.000000
      Number of unpaired electrons: n_u = -0.00000, n_u,nl =  0.00000
    
    Mulliken Population Analysis (State DM)
    Atom      Charge (e)
    --------------------
     1 O       -0.813533
     2 H        0.384646
     3 H        0.406339
     4 O       -0.683123
     5 H        0.286559
     6 H        0.377132
     7 O       -0.585578
     8 H        0.294336
     9 H        0.311188
    10 O       -0.688662
    11 H        0.327557
    12 H        0.353683
    13 O       -0.598119
    14 H        0.339446
    15 H        0.238458
    16 O       -0.644946
    17 H        0.275960
    18 H        0.366608
    19 O       -0.595602
    20 H        0.304877
    21 H        0.306462
    22 O       -0.663333
    23 H        0.355812
    24 H        0.297632
    25 O       -0.628035
    26 H        0.332321
    27 H        0.341916
    --------------------
    Sum:       -0.000000
    
    Multipole moment analysis of the density matrix
      Molecular charge:                      0.000000
      Number of electrons:                   90.000000
        Center of electronic charge [Ang]: [ -0.001827,   0.002798,   0.003121]
      Total nuclear charge:                  90.000000
        Center of nuclear charge [Ang]:    [ -0.011119,   0.001411,   0.017631]
      Dipole moment [D]:                     7.472520
        Cartesian components [D]:          [ -4.016666,  -0.599499,   6.272603]
      RMS size of the density [Ang]:         3.168845
        Cartesian components [Ang]:        [  1.949773,   1.541920,   1.965311]
    

  ----------------------------------------------------------------------------
                  Analysis of Unrelaxed Density Matrices
  ----------------------------------------------------------------------------

  Singlet 1 :
  -------------------------
    NOs
      Occupation of frontier NOs:
         0.0000   1.0000   1.0000   2.0000
      Number of electrons: 90.000000
      Number of unpaired electrons: n_u =  2.00000, n_u,nl =  2.00000
      NO participation ratio (PR_NO):  2.000000
    
    NDOs
      Leading detachment eigenvalues:
        -1.0000  -0.0000
      Leading attachment eigenvalues:
         1.0000   0.0000
      Number of detached / attached electrons: p_D =  1.0000, p_A =  1.0000
      Number of involved orbitals: PR_D =  1.000000, PR_A =  1.000000
    
    Mulliken Population Analysis (State/Difference DM)
    Atom      Charge (e)              h+              e-           Del q
    --------------------------------------------------------------------
     1 O        0.155588        0.993227       -0.024105        0.969121
     2 H        0.325654        0.003466       -0.062457       -0.058992
     3 H        0.380124        0.003314       -0.029530       -0.026216
     4 O       -0.674792        0.000001        0.008330        0.008331
     5 H        0.221625       -0.000000       -0.064934       -0.064934
     6 H        0.386783       -0.000010        0.009662        0.009652
     7 O       -0.560045       -0.000000        0.025533        0.025533
     8 H        0.095742        0.000000       -0.198594       -0.198594
     9 H        0.068907       -0.000000       -0.242280       -0.242280
    10 O       -0.691594        0.000000       -0.002932       -0.002932
    11 H        0.313457        0.000000       -0.014101       -0.014101
    12 H        0.354612        0.000001        0.000928        0.000929
    13 O       -0.624411       -0.000000       -0.026292       -0.026292
    14 H        0.411428       -0.000000        0.071982        0.071981
    15 H        0.150349        0.000000       -0.088109       -0.088109
    16 O       -0.643622        0.000000        0.001324        0.001324
    17 H        0.269387        0.000000       -0.006573       -0.006573
    18 H        0.364697        0.000001       -0.001911       -0.001911
    19 O       -0.606600       -0.000000       -0.010997       -0.010998
    20 H        0.182903        0.000000       -0.121974       -0.121974
    21 H        0.175881       -0.000000       -0.130582       -0.130582
    22 O       -0.660339       -0.000000        0.002994        0.002994
    23 H        0.354792        0.000001       -0.001020       -0.001020
    24 H        0.250633       -0.000000       -0.046999       -0.046999
    25 O       -0.610107        0.000001        0.017927        0.017928
    26 H        0.287168       -0.000000       -0.045153       -0.045153
    27 H        0.321782        0.000000       -0.020135       -0.020134
    --------------------------------------------------------------------
    Sum:        0.000000        1.000000       -1.000000        0.000000
    
    Multipole moment analysis of the density matrix
      Molecular charge:                      0.000000
      Number of electrons:                   90.000000
        Center of electronic charge [Ang]: [ -0.027488,   0.011494,   0.008370]
      Total nuclear charge:                  90.000000
        Center of nuclear charge [Ang]:    [ -0.011119,   0.001411,   0.017631]
      Dipole moment [D]:                     9.224739
        Cartesian components [D]:          [  7.076015,  -4.358768,   4.003369]
      RMS size of the density [Ang]:         3.190224
        Cartesian components [Ang]:        [  1.966806,   1.552895,   1.974266]
    
    Exciton analysis of the difference density matrix
      <r_h> [Ang]:                  [  0.618272,  -0.470250,   0.363858]
      <r_e> [Ang]:                  [ -1.691161,   0.312409,   0.836300]
      |<r_e - r_h>| [Ang]:            2.483795
      Hole size [Ang]:                0.122774
        Cartesian components [Ang]: [  0.070889,   0.070887,   0.070874]
      Electron size [Ang]:            3.068261
        Cartesian components [Ang]: [  1.897105,   1.787946,   1.618168]

  Singlet 2 :
  -------------------------
    NOs
      Occupation of frontier NOs:
         0.0000   1.0000   1.0000   2.0000
      Number of electrons: 90.000000
      Number of unpaired electrons: n_u =  2.00000, n_u,nl =  2.00000
      NO participation ratio (PR_NO):  2.000000
    
    NDOs
      Leading detachment eigenvalues:
        -1.0000  -0.0000
      Leading attachment eigenvalues:
         1.0000   0.0000
      Number of detached / attached electrons: p_D =  1.0000, p_A =  1.0000
      Number of involved orbitals: PR_D =  1.000000, PR_A =  1.000000
    
    Mulliken Population Analysis (State/Difference DM)
    Atom      Charge (e)              h+              e-           Del q
    --------------------------------------------------------------------
     1 O        0.094711        0.993227       -0.084982        0.908245
     2 H        0.354288        0.003466       -0.033823       -0.030358
     3 H        0.660907        0.003314        0.251254        0.254568
     4 O       -0.674736        0.000001        0.008386        0.008387
     5 H        0.286554       -0.000000       -0.000005       -0.000006
     6 H        0.341277       -0.000010       -0.035844       -0.035854
     7 O       -0.600656       -0.000000       -0.015078       -0.015078
     8 H        0.284773        0.000000       -0.009563       -0.009563
     9 H        0.268057       -0.000000       -0.043131       -0.043131
    10 O       -0.689764        0.000000       -0.001103       -0.001103
    11 H        0.326723        0.000000       -0.000834       -0.000834
    12 H        0.345932        0.000001       -0.007752       -0.007751
    13 O       -0.597332       -0.000000        0.000787        0.000787
    14 H        0.357722       -0.000000        0.018276        0.018275
    15 H        0.207920        0.000000       -0.030538       -0.030538
    16 O       -0.640940        0.000000        0.004007        0.004007
    17 H        0.215558        0.000000       -0.060402       -0.060402
    18 H        0.379445        0.000001        0.012837        0.012837
    19 O       -0.584970       -0.000000        0.010633        0.010632
    20 H        0.245040        0.000000       -0.059837       -0.059837
    21 H        0.287167       -0.000000       -0.019295       -0.019296
    22 O       -0.659123       -0.000000        0.004210        0.004210
    23 H        0.356779        0.000001        0.000966        0.000967
    24 H        0.280751       -0.000000       -0.016880       -0.016880
    25 O       -0.525867        0.000001        0.102166        0.102167
    26 H       -0.336137       -0.000000       -0.668458       -0.668458
    27 H        0.015923        0.000000       -0.325994       -0.325994
    --------------------------------------------------------------------
    Sum:        0.000000        1.000000       -1.000000        0.000000
    
[...]
1339  H 13  f 3     -0.00084  -0.00296
1340  H 13  f 4      0.00220   0.00204
1341  H 13  f 5      0.00048   0.00187
1342  H 13  f 6      0.00082   0.00076
1343  H 13  f 7      0.00313   0.00612
1344  H 13  g 1     -0.00019  -0.00032
1345  H 13  g 2      0.00013   0.00007
1346  H 13  g 3     -0.00004  -0.00018
1347  H 13  g 4     -0.00018  -0.00016
1348  H 13  g 5     -0.00002  -0.00011
1349  H 13  g 6      0.00016   0.00012
1350  H 13  g 7     -0.00004  -0.00010
1351  H 13  g 8      0.00020   0.00018
1352  H 13  g 9      0.00016   0.00026
1353  H 14  s        0.00035   0.00217
1354  H 14  s       -0.00626   0.00250
1355  H 14  s        0.08256   0.05061
1356  H 14  s        0.15634  -0.06898
1357  H 14  s        0.50485   0.39558
1358  H 14  px       0.00040   0.00052
1359  H 14  py       0.00050   0.00042
1360  H 14  pz       0.00044   0.00101
1361  H 14  px       0.00050  -0.00001
1362  H 14  py      -0.00103  -0.00147
1363  H 14  pz       0.00109  -0.00178
1364  H 14  px      -0.02065  -0.00045
1365  H 14  py      -0.00356   0.00672
1366  H 14  pz      -0.01443   0.01171
1367  H 14  px      -0.03874   0.01644
1368  H 14  py      -0.06332  -0.00237
1369  H 14  pz      -0.02107   0.01602
1370  H 14  d 1     -0.00003  -0.00009
1371  H 14  d 2     -0.00013   0.00015
1372  H 14  d 3     -0.00011  -0.00011
1373  H 14  d 4     -0.00021   0.00005
1374  H 14  d 5     -0.00034  -0.00022
1375  H 14  d 1      0.00113   0.00078
1376  H 14  d 2      0.00121  -0.00040
1377  H 14  d 3      0.00051   0.00034
1378  H 14  d 4      0.00345   0.00064
1379  H 14  d 5      0.00280   0.00146
1380  H 14  d 1      0.01249  -0.00257
1381  H 14  d 2      0.00878  -0.00283
1382  H 14  d 3     -0.00612  -0.00827
1383  H 14  d 4      0.01281  -0.00332
1384  H 14  d 5      0.00273  -0.00168
1385  H 14  f 1      0.00005  -0.00006
1386  H 14  f 2      0.00005  -0.00005
1387  H 14  f 3      0.00001  -0.00007
1388  H 14  f 4      0.00002   0.00005
1389  H 14  f 5     -0.00023  -0.00021
1390  H 14  f 6     -0.00020  -0.00025
1391  H 14  f 7     -0.00011  -0.00002
1392  H 14  f 1     -0.00207  -0.00011
1393  H 14  f 2     -0.00307   0.00033
1394  H 14  f 3     -0.00071   0.00089
1395  H 14  f 4      0.00235   0.00066
1396  H 14  f 5     -0.00044   0.00144
1397  H 14  f 6     -0.00133   0.00041
1398  H 14  f 7      0.00009  -0.00017
1399  H 14  g 1      0.00008   0.00002
1400  H 14  g 2      0.00020   0.00004
1401  H 14  g 3      0.00013  -0.00004
1402  H 14  g 4     -0.00006  -0.00006
1403  H 14  g 5     -0.00019  -0.00003
1404  H 14  g 6     -0.00010  -0.00009
1405  H 14  g 7      0.00008   0.00002
1406  H 14  g 8      0.00002   0.00003
1407  H 14  g 9     -0.00003  -0.00000
1408  O 8   s        0.00167  -0.00196
1409  O 8   s       -0.05577   0.04818
1410  O 8   s       -0.00153   0.00051
1411  O 8   s       -0.05659   0.05322
1412  O 8   s       -0.10275   0.04002
1413  O 8   s       -0.43669   0.36320
1414  O 8   px      -0.01867   0.02740
1415  O 8   py       0.01376  -0.01695
1416  O 8   pz      -0.00404   0.01888
1417  O 8   px      -0.02839   0.04549
1418  O 8   py       0.02041  -0.02599
1419  O 8   pz      -0.00550   0.03070
1420  O 8   px      -0.05173   0.05847
1421  O 8   py       0.03418  -0.04015
1422  O 8   pz      -0.01336   0.04410
1423  O 8   px      -0.08183  -0.01394
1424  O 8   py       0.11554  -0.16460
1425  O 8   pz      -0.00179  -0.01618
1426  O 8   px      -0.14756   0.18521
1427  O 8   py       0.00789   0.07143
1428  O 8   pz      -0.10456   0.13820
1429  O 8   d 1      0.00001   0.00003
1430  O 8   d 2     -0.00016   0.00015
1431  O 8   d 3      0.00013  -0.00034
1432  O 8   d 4     -0.00021   0.00035
1433  O 8   d 5      0.00006  -0.00026
1434  O 8   d 1      0.00038  -0.00084
1435  O 8   d 2      0.00069  -0.00148
1436  O 8   d 3     -0.00057   0.00177
1437  O 8   d 4      0.00206  -0.00246
1438  O 8   d 5      0.00023   0.00085
1439  O 8   d 1      0.00339   0.00322
1440  O 8   d 2     -0.00279   0.00560
1441  O 8   d 3      0.00461  -0.00738
1442  O 8   d 4     -0.00914   0.00716
1443  O 8   d 5     -0.00090  -0.00985
1444  O 8   d 1      0.02961  -0.01464
1445  O 8   d 2      0.00490  -0.00778
1446  O 8   d 3      0.01633  -0.00393
1447  O 8   d 4     -0.02358   0.01522
1448  O 8   d 5     -0.00366  -0.01466
1449  O 8   f 1     -0.00013   0.00015
1450  O 8   f 2     -0.00014   0.00024
1451  O 8   f 3     -0.00005   0.00005
1452  O 8   f 4      0.00006  -0.00026
1453  O 8   f 5     -0.00001   0.00004
1454  O 8   f 6      0.00004   0.00004
1455  O 8   f 7      0.00013  -0.00012
1456  O 8   f 1      0.00065  -0.00041
1457  O 8   f 2      0.00086  -0.00121
1458  O 8   f 3      0.00015  -0.00001
1459  O 8   f 4     -0.00008   0.00118
1460  O 8   f 5      0.00011  -0.00003
1461  O 8   f 6     -0.00068   0.00017
1462  O 8   f 7     -0.00070   0.00070
1463  O 8   f 1      0.00820  -0.01101
1464  O 8   f 2      0.01423  -0.02020
1465  O 8   f 3     -0.00144   0.00160
1466  O 8   f 4      0.00377  -0.00206
1467  O 8   f 5      0.00290  -0.00080
1468  O 8   f 6     -0.00899   0.00384
1469  O 8   f 7     -0.00309  -0.00091
1470  O 8   g 1     -0.00001  -0.00003
1471  O 8   g 2     -0.00003   0.00007
1472  O 8   g 3      0.00006  -0.00006
1473  O 8   g 4      0.00004  -0.00010
1474  O 8   g 5      0.00003   0.00001
1475  O 8   g 6     -0.00007   0.00007
1476  O 8   g 7     -0.00003   0.00002
1477  O 8   g 8     -0.00013   0.00024
1478  O 8   g 9     -0.00012   0.00026
1479  O 8   g 1      0.00196  -0.00194
1480  O 8   g 2      0.00218  -0.00243
1481  O 8   g 3     -0.00019   0.00004
1482  O 8   g 4     -0.00002   0.00021
1483  O 8   g 5      0.00038  -0.00059
1484  O 8   g 6      0.00183  -0.00170
1485  O 8   g 7      0.00016  -0.00021
1486  O 8   g 8      0.00120  -0.00297
1487  O 8   g 9      0.00079  -0.00254
1488  O 8   h 1      0.00012  -0.00004
1489  O 8   h 2      0.00013  -0.00017
1490  O 8   h 3      0.00010  -0.00015
1491  O 8   h 4     -0.00026   0.00031
1492  O 8   h 5     -0.00016   0.00022
1493  O 8   h 6     -0.00004   0.00006
1494  O 8   h 7      0.00008  -0.00007
1495  O 8   h 8      0.00022  -0.00016
1496  O 8   h 9     -0.00006   0.00003
1497  O 8   h10      0.00008  -0.00023
1498  O 8   h11      0.00020  -0.00034
1499  H 15  s        0.00310  -0.00274
1500  H 15  s        0.00461  -0.00291
1501  H 15  s        0.09829  -0.13717
1502  H 15  s       -0.05519  -0.00186
1503  H 15  s        0.06600   0.23644
1504  H 15  px      -0.00059   0.00027
1505  H 15  py      -0.00100   0.00068
1506  H 15  pz      -0.00024   0.00013
1507  H 15  px       0.00085   0.00011
1508  H 15  py       0.00229  -0.00204
1509  H 15  pz      -0.00010   0.00058
1510  H 15  px      -0.00422  -0.00355
1511  H 15  py       0.00562  -0.03059
1512  H 15  pz       0.00005  -0.00872
1513  H 15  px       0.05289  -0.01878
1514  H 15  py       0.00436  -0.03044
1515  H 15  pz       0.00347  -0.00905
1516  H 15  d 1     -0.00008   0.00040
1517  H 15  d 2     -0.00013   0.00002
1518  H 15  d 3      0.00025  -0.00007
1519  H 15  d 4     -0.00019  -0.00014
1520  H 15  d 5     -0.00025   0.00023
1521  H 15  d 1      0.00098  -0.00334
1522  H 15  d 2      0.00152  -0.00234
1523  H 15  d 3     -0.00230   0.00308
1524  H 15  d 4      0.00081   0.00063
1525  H 15  d 5     -0.00138   0.00404
1526  H 15  d 1     -0.00657   0.01541
1527  H 15  d 2     -0.01118   0.00602
1528  H 15  d 3      0.00136   0.00225
1529  H 15  d 4     -0.00281  -0.00037
1530  H 15  d 5      0.00166   0.00685
1531  H 15  f 1     -0.00037   0.00044
1532  H 15  f 2      0.00006  -0.00016
1533  H 15  f 3     -0.00003   0.00016
1534  H 15  f 4     -0.00018   0.00036
1535  H 15  f 5     -0.00003   0.00015
1536  H 15  f 6     -0.00045   0.00062
1537  H 15  f 7     -0.00041   0.00078
1538  H 15  f 1      0.00079   0.00158
1539  H 15  f 2     -0.00089   0.00161
1540  H 15  f 3     -0.00117   0.00133
1541  H 15  f 4      0.00067  -0.00060
1542  H 15  f 5     -0.00015  -0.00051
1543  H 15  f 6      0.00280  -0.00195
1544  H 15  f 7      0.00188  -0.00328
1545  H 15  g 1     -0.00003   0.00005
1546  H 15  g 2      0.00005   0.00007
1547  H 15  g 3     -0.00008   0.00007
1548  H 15  g 4      0.00002   0.00004
1549  H 15  g 5      0.00005  -0.00002
1550  H 15  g 6      0.00004  -0.00007
1551  H 15  g 7      0.00007  -0.00006
1552  H 15  g 8      0.00013  -0.00017
1553  H 15  g 9      0.00006  -0.00023
1554  H 16  s        0.00551  -0.00637
1555  H 16  s        0.00195  -0.00662
1556  H 16  s        0.19637  -0.15345
1557  H 16  s       -0.05146   0.25990
1558  H 16  s        0.78795  -1.20878
1559  H 16  px       0.00204  -0.00272
1560  H 16  py      -0.00095   0.00140
1561  H 16  pz       0.00100  -0.00136
1562  H 16  px      -0.00308   0.00458
1563  H 16  py       0.00280  -0.00507
1564  H 16  pz      -0.00051   0.00217
1565  H 16  px      -0.01191  -0.01732
1566  H 16  py      -0.01016   0.03793
1567  H 16  pz      -0.01202  -0.00854
1568  H 16  px       0.00232  -0.06374
1569  H 16  py      -0.00557   0.03990
1570  H 16  pz       0.00748  -0.05406
1571  H 16  d 1     -0.00003   0.00033
1572  H 16  d 2     -0.00005   0.00014
1573  H 16  d 3      0.00002   0.00012
1574  H 16  d 4     -0.00064   0.00047
1575  H 16  d 5     -0.00036   0.00064
1576  H 16  d 1     -0.00108  -0.00253
1577  H 16  d 2     -0.00048  -0.00121
1578  H 16  d 3     -0.00074  -0.00049
1579  H 16  d 4      0.00600  -0.00397
1580  H 16  d 5      0.00417  -0.00468
1581  H 16  d 1      0.01133  -0.02776
1582  H 16  d 2      0.00426  -0.01673
1583  H 16  d 3      0.00463  -0.00425
1584  H 16  d 4     -0.00522   0.01788
1585  H 16  d 5     -0.00157   0.00429
1586  H 16  f 1      0.00037  -0.00011
1587  H 16  f 2      0.00027  -0.00008
1588  H 16  f 3     -0.00003   0.00005
1589  H 16  f 4      0.00056  -0.00051
1590  H 16  f 5     -0.00011   0.00011
1591  H 16  f 6     -0.00058   0.00058
1592  H 16  f 7     -0.00022   0.00013
1593  H 16  f 1     -0.00204   0.00453
1594  H 16  f 2     -0.00136   0.00468
1595  H 16  f 3      0.00054  -0.00030
1596  H 16  f 4     -0.00140   0.00301
1597  H 16  f 5     -0.00061   0.00000
1598  H 16  f 6      0.00021  -0.00082
1599  H 16  f 7     -0.00099   0.00303
1600  H 16  g 1      0.00003  -0.00021
1601  H 16  g 2      0.00001  -0.00029
1602  H 16  g 3     -0.00004  -0.00008
1603  H 16  g 4     -0.00000   0.00007
1604  H 16  g 5     -0.00006  -0.00002
1605  H 16  g 6     -0.00002  -0.00004
1606  H 16  g 7      0.00007  -0.00004
1607  H 16  g 8      0.00014  -0.00029
1608  H 16  g 9      0.00011  -0.00031
1609  O 9   s       -0.00028   0.00015
1610  O 9   s        0.02219  -0.00946
1611  O 9   s        0.00070   0.00023
1612  O 9   s        0.03477  -0.02869
1613  O 9   s       -0.05212   0.11165
1614  O 9   s       -0.33017   0.27677
1615  O 9   px       0.01246   0.00039
1616  O 9   py      -0.00721   0.00604
1617  O 9   pz      -0.00493   0.00733
1618  O 9   px       0.02169  -0.00070
1619  O 9   py      -0.01188   0.01000
1620  O 9   pz      -0.00835   0.01319
1621  O 9   px       0.02088   0.00973
1622  O 9   py      -0.01498   0.01015
1623  O 9   pz      -0.00736   0.00775
1624  O 9   px      -0.01825   0.03898
1625  O 9   py       0.04020  -0.08009
1626  O 9   pz       0.06543  -0.07112
1627  O 9   px      -0.01550   0.03007
1628  O 9   py      -0.07139  -0.00867
1629  O 9   pz       0.09589  -0.01741
1630  O 9   d 1     -0.00002   0.00002
1631  O 9   d 2     -0.00012   0.00008
1632  O 9   d 3     -0.00007   0.00005
1633  O 9   d 4     -0.00000   0.00004
1634  O 9   d 5     -0.00006  -0.00006
1635  O 9   d 1     -0.00045  -0.00013
1636  O 9   d 2      0.00046  -0.00081
1637  O 9   d 3      0.00015  -0.00047
1638  O 9   d 4     -0.00060  -0.00027
1639  O 9   d 5      0.00033   0.00038
1640  O 9   d 1     -0.00044   0.00066
1641  O 9   d 2     -0.00528   0.01018
1642  O 9   d 3     -0.00179   0.00336
1643  O 9   d 4      0.00017   0.00223
1644  O 9   d 5     -0.00243  -0.00266
1645  O 9   d 1      0.00189   0.00461
1646  O 9   d 2     -0.01957   0.04697
1647  O 9   d 3     -0.01303   0.02213
1648  O 9   d 4      0.00660   0.00019
1649  O 9   d 5      0.01366  -0.00963
1650  O 9   f 1      0.00000  -0.00004
1651  O 9   f 2     -0.00000  -0.00005
1652  O 9   f 3      0.00005   0.00004
1653  O 9   f 4     -0.00001  -0.00000
1654  O 9   f 5     -0.00005   0.00004
1655  O 9   f 6     -0.00001  -0.00011
1656  O 9   f 7      0.00003  -0.00010
1657  O 9   f 1     -0.00020   0.00044
1658  O 9   f 2     -0.00001   0.00058
1659  O 9   f 3     -0.00024  -0.00049
1660  O 9   f 4      0.00027  -0.00016
1661  O 9   f 5      0.00024  -0.00006
1662  O 9   f 6     -0.00000   0.00100
1663  O 9   f 7     -0.00025   0.00056
1664  O 9   f 1     -0.00023   0.00497
1665  O 9   f 2     -0.00153   0.00313
1666  O 9   f 3      0.00268  -0.00539
1667  O 9   f 4      0.00025  -0.00307
1668  O 9   f 5     -0.00240   0.00262
1669  O 9   f 6     -0.00122   0.00621
1670  O 9   f 7      0.00131  -0.00324
1671  O 9   g 1      0.00001   0.00005
1672  O 9   g 2     -0.00006   0.00004
1673  O 9   g 3     -0.00004   0.00001
1674  O 9   g 4      0.00002  -0.00001
1675  O 9   g 5     -0.00002   0.00003
1676  O 9   g 6      0.00001  -0.00002
1677  O 9   g 7     -0.00001   0.00005
1678  O 9   g 8      0.00002  -0.00001
1679  O 9   g 9     -0.00002   0.00002
1680  O 9   g 1      0.00003   0.00016
1681  O 9   g 2      0.00021  -0.00010
1682  O 9   g 3     -0.00017   0.00016
1683  O 9   g 4      0.00005   0.00011
1684  O 9   g 5     -0.00008  -0.00034
1685  O 9   g 6     -0.00005  -0.00028
1686  O 9   g 7     -0.00025  -0.00048
1687  O 9   g 8      0.00012   0.00021
1688  O 9   g 9      0.00008   0.00003
1689  O 9   h 1      0.00004   0.00002
1690  O 9   h 2     -0.00001   0.00009
1691  O 9   h 3      0.00001   0.00007
1692  O 9   h 4      0.00005  -0.00006
1693  O 9   h 5     -0.00000  -0.00005
1694  O 9   h 6      0.00007   0.00001
1695  O 9   h 7     -0.00000  -0.00001
1696  O 9   h 8      0.00005  -0.00000
1697  O 9   h 9     -0.00009   0.00008
1698  O 9   h10     -0.00000  -0.00005
1699  O 9   h11     -0.00000   0.00000
1700  H 17  s       -0.00250   0.00020
1701  H 17  s       -0.00932   0.00537
1702  H 17  s       -0.00911  -0.04369
1703  H 17  s        0.09624   0.03554
1704  H 17  s       -0.15735  -0.22888
1705  H 17  px      -0.00040  -0.00051
1706  H 17  py      -0.00008  -0.00018
1707  H 17  pz      -0.00006  -0.00016
1708  H 17  px      -0.00006   0.00155
1709  H 17  py      -0.00040   0.00068
1710  H 17  pz      -0.00075   0.00060
1711  H 17  px      -0.01362   0.01039
1712  H 17  py      -0.00281  -0.00079
1713  H 17  pz      -0.00241   0.00069
1714  H 17  px      -0.05032   0.02192
1715  H 17  py       0.00481  -0.01033
1716  H 17  pz      -0.02100  -0.01997
1717  H 17  d 1     -0.00005   0.00013
1718  H 17  d 2     -0.00015  -0.00002
1719  H 17  d 3      0.00013  -0.00007
1720  H 17  d 4      0.00002   0.00021
1721  H 17  d 5      0.00007   0.00015
1722  H 17  d 1      0.00108  -0.00137
1723  H 17  d 2      0.00108  -0.00033
1724  H 17  d 3     -0.00072   0.00082
1725  H 17  d 4      0.00068  -0.00206
1726  H 17  d 5      0.00010  -0.00176
1727  H 17  d 1      0.00241   0.00208
1728  H 17  d 2     -0.00212   0.00308
1729  H 17  d 3     -0.00334   0.00580
1730  H 17  d 4      0.00669   0.00395
1731  H 17  d 5      0.00950  -0.00770
1732  H 17  f 1     -0.00005   0.00007
1733  H 17  f 2     -0.00002   0.00012
1734  H 17  f 3     -0.00006   0.00002
1735  H 17  f 4     -0.00004  -0.00010
1736  H 17  f 5      0.00000   0.00007
1737  H 17  f 6      0.00005   0.00008
1738  H 17  f 7      0.00007  -0.00001
1739  H 17  f 1     -0.00088   0.00040
1740  H 17  f 2     -0.00060  -0.00068
1741  H 17  f 3      0.00044  -0.00053
1742  H 17  f 4      0.00111  -0.00014
1743  H 17  f 5      0.00030  -0.00170
1744  H 17  f 6     -0.00132   0.00051
1745  H 17  f 7     -0.00103   0.00163
1746  H 17  g 1      0.00007  -0.00004
1747  H 17  g 2      0.00006   0.00001
1748  H 17  g 3     -0.00000   0.00007
1749  H 17  g 4     -0.00003   0.00002
1750  H 17  g 5     -0.00003  -0.00009
1751  H 17  g 6     -0.00007   0.00007
1752  H 17  g 7      0.00001   0.00007
1753  H 17  g 8      0.00006  -0.00007
1754  H 17  g 9      0.00002  -0.00010
1755  H 18  s       -0.00113   0.00085
1756  H 18  s       -0.00288   0.00403
1757  H 18  s        0.04479  -0.10969
1758  H 18  s        0.42029  -0.36113
1759  H 18  s       -0.43297   0.39758
1760  H 18  px      -0.00039   0.00021
1761  H 18  py       0.00075  -0.00062
1762  H 18  pz       0.00114  -0.00078
1763  H 18  px       0.00152  -0.00060
1764  H 18  py      -0.00164   0.00176
1765  H 18  pz      -0.00281   0.00234
1766  H 18  px      -0.01364   0.02506
1767  H 18  py       0.02614  -0.03645
1768  H 18  pz       0.03508  -0.04423
1769  H 18  px      -0.03843   0.05282
1770  H 18  py       0.10519  -0.07874
1771  H 18  pz       0.08470  -0.09558
1772  H 18  d 1     -0.00004  -0.00011
1773  H 18  d 2      0.00012  -0.00014
1774  H 18  d 3     -0.00003   0.00000
1775  H 18  d 4     -0.00005  -0.00009
1776  H 18  d 5     -0.00019  -0.00012
1777  H 18  d 1      0.00003   0.00220
1778  H 18  d 2      0.00070  -0.00183
1779  H 18  d 3      0.00092  -0.00095
1780  H 18  d 4     -0.00010   0.00246
1781  H 18  d 5      0.00031   0.00109
1782  H 18  d 1     -0.00820   0.01064
1783  H 18  d 2      0.01941  -0.01914
1784  H 18  d 3      0.00420  -0.00566
1785  H 18  d 4     -0.00825   0.01368
1786  H 18  d 5     -0.01100   0.00095
1787  H 18  f 1      0.00006   0.00004
1788  H 18  f 2     -0.00001   0.00021
1789  H 18  f 3      0.00005  -0.00013
1790  H 18  f 4      0.00007  -0.00000
1791  H 18  f 5     -0.00003   0.00008
1792  H 18  f 6      0.00002   0.00009
1793  H 18  f 7     -0.00008  -0.00007
1794  H 18  f 1     -0.00082  -0.00089
1795  H 18  f 2     -0.00088   0.00225
1796  H 18  f 3      0.00130  -0.00122
1797  H 18  f 4     -0.00069   0.00083
1798  H 18  f 5     -0.00032   0.00154
1799  H 18  f 6     -0.00156  -0.00004
1800  H 18  f 7      0.00093  -0.00109
1801  H 18  g 1      0.00003  -0.00001
1802  H 18  g 2     -0.00005  -0.00012
1803  H 18  g 3     -0.00001   0.00015
1804  H 18  g 4      0.00001   0.00001
1805  H 18  g 5     -0.00005   0.00009
1806  H 18  g 6      0.00001   0.00002
1807  H 18  g 7     -0.00007  -0.00003
1808  H 18  g 8      0.00005  -0.00010
1809  H 18  g 9      0.00003   0.00007

 -----------------------------------------------------------------
                    Cartesian Multipole Moments
 -----------------------------------------------------------------
    Charge (ESU x 10^10)
                -0.0000
    Dipole Moment (Debye)
         X      -4.0167      Y      -0.5995      Z       6.2726
       Tot       7.4725
    Quadrupole Moments (Debye-Ang)
        XX     -41.1722     XY     -12.9123     YY     -47.8330
        XZ       5.4061     YZ     -14.4599     ZZ     -82.3657
    Octopole Moments (Debye-Ang^2)
       XXX     -53.8365    XXY     -24.2425    XYY       3.7130
       YYY      -7.5346    XXZ      46.7067    XYZ      13.6985
       YYZ      -7.7572    XZZ      -4.3033    YZZ      -7.8452
       ZZZ      54.4323
    Hexadecapole Moments (Debye-Ang^3)
      XXXX   -1023.8199   XXXY     -49.1789   XXYY    -266.8378
      XYYY    -105.0669   YYYY    -661.5409   XXXZ      26.1899
      XXYZ     -89.1359   XYYZ      24.2387   YYYZ     -62.7342
      XXZZ    -510.8957   XYZZ      42.2074   YYZZ    -438.8092
      XZZZ     146.2021   YZZZ    -186.7537   ZZZZ   -1586.0698
 -----------------------------------------------------------------
 Total job time:  684444.03s(wall), 1363155.01s(cpu) 
 Fri Jan 17 11:02:19 2025

        *************************************************************
        *                                                           *
        *  Thank you very much for using Q-Chem.  Have a nice day.  *
        *                                                           *
        *************************************************************


