                  Welcome to Q-Chem
     A Quantum Leap Into The Future Of Chemistry


 Q-Chem 6.2 (devel), Q-Chem, Inc., Pleasanton, CA (2024)

 E. Epifanovsky,  A. T. B. Gilbert,  Xintian Feng,  Joonho Lee,  Yuezhi Mao,  
 N. Mardirossian,  P. Pokhilko,  A. White,  M. Wormit,  M. P. Coons,  
 A. L. Dempwolff,  Zhengting Gan,  D. Hait,  P. R. Horn,  L. D. Jacobson,  
 I. Kaliman,  J. Kussmann,  A. W. Lange,  Ka Un Lao,  D. S. Levine,  Jie Liu,  
 S. C. McKenzie,  A. F. Morrison,  K. D. Nanda,  F. Plasser,  D. R. Rehn,  
 M. L. Vidal,  Zhi-Qiang You,  Ying Zhu,  Huseyin Aksu,  B. Alam,  
 B. Albrecht,  A. Aldossary,  E. Alguire,  J. H. Andersen,  
 J. E. Arias-Martinez,  V. Athavale,  D. Barton,  K. Begam,  A. Behn,  
 N. Bellonzi,  Y. A. Bernard,  E. J. Berquist,  H. Burton,  A. Carreras,  
 K. Carter-Fenk,  Mathew Chow,  Romit Chakraborty,  Chandrima Chakravarty,  
 Junhan Chen,  A. D. Chien,  K. D. Closser,  V. Cofer-Shabica,  L. Cunha,  
 S. Dasgupta,  Jia Deng,  Joseph Dickinson,  M. de Wergifosse,  
 M. Diedenhofen,  Hainam Do,  Wenjie Dou,  S. Ehlert,  Po-Tung Fang,  
 S. Fatehi,  Qingguo Feng,  Jonathan Fetherolf,  T. Friedhoff,  
 Thomas Froitzheim,  Sarai Folkestad,  B. Ganoe,  J. Gayvert,  Qinghui Ge,  
 G. Gidofalvi,  M. Gimferrer,  M. Goldey,  Montgomery Gray,  J. Gomes,  
 C. Gonzalez-Espinoza,  S. Gulania,  A. Gunina,  J. A. Gyamfi,  
 M. W. D. Hanson-Heine,  P. H. P. Harbach,  A. W. Hauser,  M. F. Herbst,  
 M. Hernandez Vera,  M. Hodecker,  Z. C. Holden,  S. Houck,  Xunkun Huang,  
 Kerwin Hui,  B. C. Huynh,  K. Ikeda,  M. Ivanov,  Nayanthara K. Jayadev,  
 Hyunjun Ji,  Zuxin Jin,  Hanjie Jiang,  Subrata Jana,  B. Kaduk,  
 S. Kaehler,  R. Kang,  K. Khistyaev,  Jaehoon Kim,  Yongbin Kim,  
 P. Klunzinger,  Z. Koczor-Benda,  Joong Hoon Koh,  D. Kosenkov,  
 Saikiran Kotaru,  L. Koulias,  T. Kowalczyk,  C. M. Krauter,  K. Kue,  
 A. Kunitsa,  T. Kus,  A. Landau,  K. V. Lawler,  D. Lefrancois,  S. Lehtola,  
 Rain Li,  Shaozhi Li,  Tao E. Li,  Yi-Pei Li,  Jiashu Liang,  M. Liebenthal,  
 Hung-Hsuan Lin,  You-Sheng Lin,  Fenglai Liu,  Kuan-Yu Liu,  Xiao Liu,  
 M. Loipersberger,  A. Luenser,  C. Malbon,  Aniket Mandal,  Manisha,  
 A. Manjanath,  P. Manohar,  E. Mansoor,  S. F. Manzer,  Shan-Ping Mao,  
 A. V. Marenich,  T. Markovich,  S. Mason,  F. Matz,  S. A. Maurer,  
 Samuel May,  Alexandra McIsaac,  P. F. McLaughlin,  M. F. S. J. Menger,  
 J.-M. Mewes,  S. A. Mewes,  P. Morgante,  Mohammad Mostafanejad,  
 Madhubani Mukherjee,  J. W. Mullinax,  Quyen Nguyen,  Avik Kumar Ojha,  
 K. J. Oosterbaan,  Eno Paenurk,  Xiaoliang Pan,  G. Paran,  V. Parravicini,  
 Alexander C. Paul,  Suranjan K. Paul,  F. Pavosevic,  Zheng Pei,  S. Prager,  
 E. I. Proynov,  E. Ramos,  B. Rana,  A. E. Rask,  A. Rettig,  R. M. Richard,  
 F. Rob,  E. Rossomme,  T. Scheele,  M. Scheurer,  M. Schneider,  
 P. E. Schneider,  Tim K. Schramm,  N. Sergueev,  S. M. Sharada,  
 Hengyuan Shen,  W. Skomorowski,  D. W. Small,  C. J. Stein,  
 Alistair J. Sterling,  Yingli Su,  Yu-Chuan Su,  E. J. Sundstrom,  
 J. Talbot,  Zhen Tao,  J. Thirman,  Hung-Yi Tsai,  T. Tsuchimochi,  
 N. M. Tubman,  C. Utku,  S. P. Veccham,  O. Vydrov,  Rahel Weiss,  
 J. Wenzel,  Jonathan Wong,  J. Witte,  H. Wu,  Yanze Wu,  A. Yamada,  
 Chou-Hsun Yang,  Kun Yao,  S. Yeganeh,  S. R. Yost,  Qi Yu,  A. Zech,  
 F. Zeller,  Chongxiao Zhao,  Igor Ying Zhang,  Xing Zhang,  Yu Zhang,  
 D. Zuev,  A. Aspuru-Guzik,  A. T. Bell,  N. A. Besley,  K. B. Bravaya,  
 B. R. Brooks,  D. Casanova,  Jeng-Da Chai,  Hsing-Ta Chen,  S. Coriani,  
 C. J. Cramer,  A. E. DePrince, III,  R. A. DiStasio Jr.,  A. Dreuw,  
 B. D. Dunietz,  T. R. Furlani,  W. A. Goddard III,  S. Grimme,  
 S. Hammes-Schiffer,  T. Head-Gordon,  W. J. Hehre,  Chao-Ping Hsu,  
 T.-C. Jagau,  Yousung Jung,  A. Klamt,  Jing Kong,  D. S. Lambrecht,  
 Xiangyuan Li,  WanZhen Liang,  N. J. Mayhall,  C. W. McCurdy,  J. B. Neaton,  
 T. Neudecker,  C. Ochsenfeld,  J. A. Parkhill,  R. Peverati,  
 V. A. Rassolov,  Haisheng Ren,  Yihan Shao,  L. V. Slipchenko,  
 R. P. Steele,  J. E. Subotnik,  A. J. W. Thom,  A. Tkatchenko,  
 D. G. Truhlar,  T. Van Voorhis,  Fan Wang,  T. A. Wesolowski,  K. B. Whaley,  
 H. L. Woodcock III,  P. M. Zimmerman,  S. Faraji,  P. M. W. Gill,  
 M. Head-Gordon,  J. M. Herbert,  A. I. Krylov

 Contributors to earlier versions of Q-Chem not listed above: 
 R. D. Adamson,  B. Austin,  R. Baer,  J. Baker,  G. J. O. Beran,  
 K. Brandhorst,  S. T. Brown,  E. F. C. Byrd,  Arup K. Chakraborty,  
 G. K. L. Chan,  Chun-Min Chang,  Yunqing Chen,  C.-L. Cheng,  
 Siu Hung Chien,  D. M. Chipman,  D. L. Crittenden,  H. Dachsel,  
 R. J. Doerksen,  A. D. Dutoi,  R. G. Edgar,  J. Fosso-Tande,  
 L. Fusti-Molnar,  D. Ghosh,  A. Ghysels,  A. Golubeva-Zadorozhnaya,  
 J. Gonthier,  M. S. Gordon,  S. R. Gwaltney,  G. Hawkins,  J. E. Herr,  
 A. Heyden,  S. Hirata,  E. G. Hohenstein,  G. Kedziora,  F. J. Keil,  
 C. Kelley,  Jihan Kim,  R. A. King,  R. Z. Khaliullin,  P. P. Korambath,  
 W. Kurlancheek,  A. Laurent,  A. M. Lee,  M. S. Lee,  S. V. Levchenko,  
 Ching Yeh Lin,  D. Liotard,  E. Livshits,  R. C. Lochan,  I. Lotan,  
 L. A. Martinez-Martinez,  P. E. Maslen,  N. Nair,  D. P. O'Neill,  
 D. Neuhauser,  E. Neuscamman,  C. M. Oana,  R. Olivares-Amaya,  R. Olson,  
 T. M. Perrine,  B. Peters,  P. A. Pieniazek,  A. Prociuk,  Y. M. Rhee,  
 J. Ritchie,  M. A. Rohrdanz,  E. Rosta,  N. J. Russ,  H. F. Schaefer III,  
 M. W. Schmidt,  N. E. Schultz,  S. Sharma,  N. Shenvi,  C. D. Sherrill,  
 A. C. Simmonett,  A. Sodt,  T. Stein,  D. Stuck,  K. S. Thanthiriwatte,  
 V. Vanovschi,  L. Vogt,  Tao Wang,  A. Warshel,  M. A. Watson,  
 C. F. Williams,  Q. Wu,  X. Xu,  Jun Yang,  W. Zhang,  Yan Zhao

   Please cite Q-Chem as follows:
  "Software for the frontiers of quantum chemistry:
   An overview of developments in the Q-Chem 5 package"
   J. Chem. Phys. 155, 084801 (2021)
   https://doi.org/10.1063/5.0055522 (open access)

 Q-Chem 6.2.2 for Intel X86 EM64T Linux

 Parts of Q-Chem use Armadillo 9.900.5 (Nocturnal Misbehaviour).
 http://arma.sourceforge.net/

 Q-Chem begins on Tue Jan 14 16:08:43 2025  

 Host: compute-0-4.local
0

     Scratch files written to /scratch/keith/A2D1_2//
 Processing $rem in /home/keith/software/qchem/qchem_622/config/preferences:
 Processing $rem in /home/keith/.qchemrc:

 Checking the input file for inconsistencies... 	...done.

--------------------------------------------------------------
User input:
--------------------------------------------------------------
$molecule
0 1
O 0.96796 -0.11257 -1.08980
H 1.87996 -0.30837 -1.18480
H 0.89706 -0.42357 -0.15810
O -1.11244 -1.68107 -1.99910
H -0.64234 -2.44357 -1.63650
H -0.51084 -0.91367 -1.93860
O 0.69286 2.71033 -0.35620
H 1.08056 1.85543 -0.66060
H -0.27674 2.49433 -0.44960
O -1.39564 0.65213 1.96290
H -0.57854 0.22543 2.10590
H -1.97394 0.42413 2.69890
O 0.73296 -1.38067 1.38890
H 0.28636 -2.19447 1.16440
H 1.65226 -1.70167 1.54020
$end

$rem
method                    b3lyp 
basis                     cc-pv5z 
mem_total                 48000
mem_static                8000
thresh                    12
scf_convergence           8
xc_grid                   000075000302
max_scf_cycles            2000
symmetry                  false
sym_ignore                true
print_orbitals true
$end
gui                       2
molden_format true
--------------------------------------------------------------
 ----------------------------------------------------------------
             Standard Nuclear Orientation (Angstroms)
    I     Atom           X                Y                Z
 ----------------------------------------------------------------
    1      O       0.9679600000    -0.1125700000    -1.0898000000
    2      H       1.8799600000    -0.3083700000    -1.1848000000
    3      H       0.8970600000    -0.4235700000    -0.1581000000
    4      O      -1.1124400000    -1.6810700000    -1.9991000000
    5      H      -0.6423400000    -2.4435700000    -1.6365000000
    6      H      -0.5108400000    -0.9136700000    -1.9386000000
    7      O       0.6928600000     2.7103300000    -0.3562000000
    8      H       1.0805600000     1.8554300000    -0.6606000000
    9      H      -0.2767400000     2.4943300000    -0.4496000000
   10      O      -1.3956400000     0.6521300000     1.9629000000
   11      H      -0.5785400000     0.2254300000     2.1059000000
   12      H      -1.9739400000     0.4241300000     2.6989000000
   13      O       0.7329600000    -1.3806700000     1.3889000000
   14      H       0.2863600000    -2.1944700000     1.1644000000
   15      H       1.6522600000    -1.7016700000     1.5402000000
 ----------------------------------------------------------------
 Nuclear Repulsion Energy =         195.62047047 hartrees
 There are       25 alpha and       25 beta electrons
 Requested basis set is cc-pV5Z
 There are 255 shells and 1005 basis functions

 Total QAlloc Memory Limit  48000 MB
 Mega-Array Size      7821 MB
 MEM_STATIC part      8000 MB


                       Distance Matrix (Angstroms)
             O (  1)   H (  2)   H (  3)   O (  4)   H (  5)   H (  6)
   H (  2)  0.937607
   H (  3)  0.984791  1.426000
   O (  4)  2.759544  3.391437  3.001446
   H (  5)  2.885396  3.335432  2.938676  0.966374
   H (  6)  1.883898  2.578862  2.322189  0.976978  1.564976
   O (  7)  2.929610  3.347885  3.146787  5.024204  5.475821  4.133553
   H (  8)  2.017403  2.365556  2.340944  4.371231  4.733093  3.440022
   H (  9)  2.958895  3.612063  3.158626  4.531370  5.091685  3.726444
   O ( 10)  3.935778  4.643289  3.303369  4.606677  4.806922  4.296080
   H ( 11)  3.566287  4.142206  2.779261  4.557501  4.597085  4.202394
   H ( 12)  4.826704  5.520166  4.138077  5.219699  5.365869  5.043489
   O ( 13)  2.794147  3.014858  1.826521  3.869662  3.489162  3.582929
   H ( 14)  3.143295  3.408178  2.293043  3.496849  2.961347  3.450302
   H ( 15)  3.148080  3.068999  2.255679  4.491173  3.988362  4.171570
             O (  7)   H (  8)   H (  9)   O ( 10)   H ( 11)   H ( 12)
   H (  8)  0.986826
   H (  9)  0.997749  1.514918
   O ( 10)  3.738482  3.802926  3.235088
   H ( 11)  3.721978  3.614282  3.430681  0.932831
   H ( 12)  4.655338  4.760759  4.132707  0.963385  1.529141
   O ( 13)  4.447838  3.846247  4.406268  2.998781  2.194010  3.507237
   H ( 14)  5.151168  4.512546  4.990684  3.401449  2.736858  3.784272
   H ( 15)  4.897196  4.221768  5.028594  3.874112  3.001699  4.360153
             O ( 13)   H ( 14)
   H ( 14)  0.955051
   H ( 15)  0.985416  1.499920

 A cutoff of  1.0D-12 yielded  22813 shell pairs
 There are    312535 function pairs (    521833 Cartesian)
 Smallest overlap matrix eigenvalue = 2.68E-05

 Scale SEOQF with 1.000000e-01/1.000000e-01/1.000000e-01

 Standard Electronic Orientation quadrupole field applied
 Nucleus-field energy     =    -0.0000000012 hartrees
 Guess from superposition of atomic densities
 Warning:  Energy on first SCF cycle will be non-variational
 SAD guess density has 50.000000 electrons

 -----------------------------------------------------------------------
  General SCF calculation program by
  Eric Jon Sundstrom, Paul Horn, Yuezhi Mao, Dmitri Zuev, Alec White,
  David Stuck, Shaama M.S., Shane Yost, Joonho Lee, David Small,
  Daniel Levine, Susi Lehtola, Hugh Burton, Evgeny Epifanovsky,
  Bang C. Huynh
 -----------------------------------------------------------------------
 Exchange:     0.2000 Hartree-Fock + 0.0800 Slater + 0.7200 B88
 Correlation:  0.1900 VWN1RPA + 0.8100 LYP
 Using Euler-Maclaurin-Lebedev (75,302) quadrature formula
 A restricted SCF calculation will be
 performed using DIIS
 SCF converges when DIIS error is below 1.0e-08
 ---------------------------------------
  Cycle       Energy         DIIS error
 ---------------------------------------
    1    -382.2069827099      7.37e-03  
    2    -382.0486458500      1.92e-03  
    3    -381.6732095237      2.83e-03  
    4    -382.3751091236      1.04e-04  
    5    -382.3752602478      9.71e-05  
    6    -382.3760169143      1.04e-05  
    7    -382.3760248687      2.84e-06  
    8    -382.3760252799      1.81e-06  
    9    -382.3760255502      1.09e-07  
   10    -382.3760255510      5.15e-08  
   11    -382.3760255512      2.31e-08  
   12    -382.3760255512      1.25e-09  Convergence criterion met
 ---------------------------------------
 SCF time:   CPU 98480.21s  wall 4163.00s 
 SCF   energy =  -382.37602555
 Total energy =  -382.37602555

 --------------------------------------------------------------

                    Orbital Energies (a.u.)
 --------------------------------------------------------------

 Alpha MOs
 -- Occupied --
-19.2020 -19.1569 -19.1183 -19.1066 -19.0999  -1.0872  -1.0535  -1.0120
 -0.9884  -0.9718  -0.5933  -0.5539  -0.5397  -0.5207  -0.4846  -0.4747
 -0.4488  -0.3939  -0.3882  -0.3791  -0.3642  -0.3349  -0.3126  -0.2990
 -0.2859
 -- Virtual --
 -0.0578   0.0023   0.0084   0.0142   0.0521   0.0615   0.0896   0.1050
  0.1150   0.1270   0.1675   0.1838   0.1907   0.1965   0.2086   0.2199
  0.2296   0.2320   0.2390   0.2489   0.2586   0.2615   0.2634   0.2733
  0.2835   0.3046   0.3099   0.3118   0.3181   0.3259   0.3378   0.3572
  0.3679   0.3766   0.3800   0.3909   0.4050   0.4259   0.4426   0.4673
  0.4709   0.4992   0.5098   0.5253   0.5447   0.5592   0.5601   0.5775
  0.5945   0.6021   0.6205   0.6361   0.6409   0.6447   0.6807   0.6904
  0.6973   0.7185   0.7264   0.7455   0.7478   0.7555   0.7639   0.7661
  0.7875   0.8004   0.8022   0.8132   0.8331   0.8401   0.8608   0.8628
  0.8850   0.9078   0.9107   0.9256   0.9472   0.9703   0.9804   0.9920
  1.0069   1.0268   1.0387   1.0434   1.0519   1.0781   1.0837   1.0880
  1.0987   1.1091   1.1211   1.1396   1.1456   1.1606   1.1643   1.1842
  1.1934   1.2007   1.2130   1.2195   1.2470   1.2712   1.2741   1.2918
  1.3305   1.3323   1.3577   1.3664   1.3741   1.3942   1.4187   1.4241
  1.4288   1.4647   1.4722   1.4899   1.5002   1.5023   1.5254   1.5319
  1.5578   1.5618   1.5702   1.5838   1.5910   1.5994   1.6106   1.6149
  1.6325   1.6401   1.6617   1.6682   1.6798   1.6975   1.7000   1.7217
  1.7310   1.7334   1.7485   1.7564   1.7740   1.7882   1.7963   1.8020
  1.8103   1.8144   1.8257   1.8376   1.8449   1.8568   1.8645   1.8755
  1.8942   1.9121   1.9187   1.9274   1.9322   1.9466   1.9650   1.9717
  1.9846   1.9915   2.0018   2.0158   2.0296   2.0515   2.0663   2.0824
  2.1008   2.1041   2.1108   2.1381   2.1429   2.1586   2.1734   2.2043
  2.2062   2.2457   2.2628   2.2826   2.2973   2.3014   2.3376   2.3486
  2.3600   2.3667   2.3919   2.3995   2.4123   2.4316   2.4358   2.4486
  2.4774   2.4972   2.5044   2.5332   2.5447   2.5590   2.5881   2.5958
  2.6153   2.6228   2.6424   2.6556   2.6704   2.6789   2.7038   2.7131
  2.7298   2.7442   2.7578   2.7644   2.7738   2.8013   2.8199   2.8368
  2.8410   2.8578   2.8750   2.8983   2.9096   2.9315   2.9471   2.9577
  2.9668   2.9873   2.9961   3.0105   3.0429   3.0551   3.0781   3.0968
  3.1079   3.1374   3.1438   3.1613   3.1843   3.1991   3.2273   3.2304
  3.2659   3.2708   3.2848   3.2986   3.3193   3.3456   3.3593   3.3846
  3.4164   3.4270   3.4408   3.4551   3.4684   3.4726   3.4838   3.4896
  3.5172   3.5185   3.5354   3.5532   3.5560   3.5752   3.5963   3.6181
  3.6256   3.6381   3.6443   3.6753   3.7156   3.7270   3.7362   3.7421
  3.7548   3.7752   3.7864   3.8090   3.8373   3.8425   3.8632   3.8737
  3.8911   3.9066   3.9391   3.9463   3.9799   3.9856   4.0074   4.0130
  4.0260   4.0435   4.0596   4.0987   4.1086   4.1453   4.1571   4.1971
  4.2185   4.2454   4.2584   4.3003   4.3201   4.3476   4.3569   4.3812
  4.4039   4.4233   4.4298   4.4449   4.4519   4.4616   4.4734   4.4784
  4.4934   4.4959   4.5027   4.5089   4.5297   4.5451   4.5481   4.5573
  4.5722   4.5874   4.5920   4.6003   4.6132   4.6262   4.6398   4.6489
  4.6562   4.6586   4.6863   4.6905   4.7103   4.7175   4.7273   4.7516
  4.7636   4.7646   4.7778   4.7828   4.8077   4.8222   4.8294   4.8346
  4.8447   4.8522   4.8724   4.8859   4.8982   4.9118   4.9246   4.9391
  4.9588   4.9819   4.9953   5.0104   5.0184   5.0373   5.0521   5.0651
  5.0930   5.1051   5.1227   5.1387   5.1448   5.1875   5.2125   5.2352
  5.2372   5.2648   5.2676   5.2852   5.3013   5.3075   5.3342   5.3611
  5.3819   5.3861   5.4070   5.4188   5.4667   5.4877   5.4968   5.5165
  5.5390   5.5694   5.5991   5.6445   5.6652   5.6753   5.6996   5.7193
  5.7425   5.7586   5.7746   5.7834   5.8407   5.8807   5.9087   5.9495
  5.9673   5.9878   5.9941   6.0576   6.0588   6.0863   6.0963   6.1212
  6.1946   6.2198   6.2589   6.2817   6.2904   6.3048   6.3237   6.3351
  6.3519   6.3606   6.3938   6.4145   6.4236   6.4538   6.5014   6.5324
  6.5637   6.5935   6.6097   6.6197   6.6478   6.6500   6.6754   6.6936
  6.7134   6.7508   6.7522   6.7659   6.7886   6.7936   6.8182   6.8357
  6.8369   6.8420   6.8608   6.8677   6.8883   6.9085   6.9182   6.9294
  6.9322   6.9555   6.9674   6.9946   7.0124   7.0381   7.0416   7.0718
  7.1045   7.1139   7.1289   7.1544   7.1758   7.1815   7.2078   7.2133
  7.2339   7.2540   7.2716   7.2841   7.2923   7.3186   7.3357   7.3670
  7.4107   7.4395   7.4558   7.4863   7.5027   7.5085   7.5173   7.5522
  7.5736   7.6088   7.6161   7.6413   7.6542   7.6797   7.7105   7.7367
  7.7461   7.7745   7.7841   7.8021   7.8472   7.8574   7.8725   7.8830
  7.9281   7.9636   7.9928   8.0245   8.0751   8.1095   8.1693   8.2389
  8.2635   8.2842   8.3435   8.3738   8.4354   8.4853   8.5303   8.6235
  8.6837   8.7348   8.8527   8.9925   9.0041   9.0143   9.0827   9.0897
  9.0974   9.1161   9.1278   9.1952   9.2207   9.2738   9.2887   9.3142
  9.3824   9.4422   9.6611   9.6693   9.6953   9.7249   9.7553   9.7595
  9.7729   9.7884   9.8029   9.8519   9.8657   9.8867   9.9413   9.9561
 10.0992  11.6552  11.6732  11.7246  11.7313  11.7360  11.7477  11.7572
 11.7730  11.7842  11.7920  11.8014  11.8097  11.8355  11.8442  11.8666
 11.8957  11.9041  11.9271  11.9446  11.9486  11.9680  12.0076  12.0271
 12.0424  12.0450  12.0612  12.0868  12.0923  12.1095  12.1211  12.1260
 12.1479  12.1520  12.1621  12.1747  12.1756  12.1803  12.1814  12.1968
 12.2151  12.2234  12.2251  12.2287  12.2366  12.2392  12.2484  12.2515
 12.2590  12.2732  12.2809  12.2937  12.3102  12.3223  12.3447  12.3517
 12.3524  12.3633  12.3842  12.3998  12.4229  12.4395  12.4469  12.4630
 12.4759  12.4844  12.5098  12.5154  12.5280  12.5314  12.5427  12.5588
 12.5678  12.5932  12.6105  12.6131  12.6223  12.6457  12.6554  12.6729
 12.6825  12.6970  12.7034  12.7289  12.7455  12.7579  12.7727  12.8082
 12.8095  12.8140  12.8306  12.8535  12.8698  12.8752  12.9001  12.9074
 12.9764  12.9981  13.0071  13.0189  13.0418  13.0832  13.0945  13.1500
 13.1720  13.2019  13.2161  13.2268  13.2389  13.2536  13.2723  13.2810
 13.2910  13.3170  13.3231  13.3315  13.3392  13.3411  13.3622  13.3664
 13.3809  13.3961  13.4126  13.4275  13.4287  13.4364  13.4423  13.4534
 13.4622  13.4692  13.4728  13.4753  13.4959  13.5039  13.5095  13.5143
 13.5354  13.5447  13.5584  13.5646  13.5800  13.5868  13.6083  13.6276
 13.6360  13.6477  13.6527  13.6695  13.6832  13.7110  13.7212  13.7294
 13.7546  13.7597  13.7768  13.8091  13.8314  13.8612  13.8661  13.8669
 13.8840  13.8983  13.9321  13.9469  13.9559  13.9789  13.9970  14.0035
 14.0361  14.0695  14.0997  14.1177  14.1255  14.1396  14.2193  14.2420
 14.2437  14.2691  14.2840  14.3333  14.3543  14.3699  14.4342  14.4405
 14.4827  14.5276  14.5995  14.6168  14.6239  14.6539  14.6737  14.7306
 14.7345  14.7517  14.8203  15.1269  15.1622  15.2088  15.2286  15.4197
 15.4299  15.4466  15.4678  15.4895  15.5522  15.5723  15.5812  15.6098
 15.6403  15.6819  15.6958  15.7066  15.7217  15.7445  15.8014  15.8247
 15.8945  15.9015  15.9161  15.9240  15.9319  15.9517  15.9999  16.0208
 16.0480  16.0557  16.0638  16.0841  16.1011  16.1181  16.1278  16.1360
 16.1508  16.1623  16.1731  16.1780  16.1994  16.2131  16.2329  16.2462
 16.2481  16.2726  16.2809  16.2950  16.3191  16.3302  16.3351  16.3581
 16.3625  16.3718  16.3969  16.4427  16.4859  16.5322  16.5813  16.6282
 16.6753  16.7034  16.8007  16.8382  16.9538  16.9571  16.9750  17.0277
 17.0535  17.0669  17.1131  17.1216  17.1924  17.2270  17.2325  17.2554
 17.2805  17.3129  17.3202  17.3538  17.3587  17.3901  17.4042  17.4415
 17.4854  17.5514  17.5978  17.6082  17.6217  17.6451  17.6736  17.7001
 17.7227  17.7547  17.7617  17.7716  17.8004  17.8286  17.8705  17.9681
 17.9994  18.0234  18.0714  18.1312  18.1431  18.1597  18.1896  18.1992
 18.2034  18.2144  18.2199  18.2467  18.3104  18.3397  18.3715  18.3761
 18.3921  18.4108  18.4585  18.4653  18.4722  18.5055  18.5067  18.5527
 18.5846  18.5957  18.6042  18.6656  18.6932  18.7174  18.7549  18.7956
 18.8029  18.8225  18.8356  18.8752  18.9191  18.9447  18.9831  19.0302
 19.0528  19.0712  19.1073  19.2026  19.2954  19.3220  19.3291  19.3416
 19.3767  19.3819  19.4049  19.4077  19.4310  19.4607  19.4872  19.4954
 19.5285  19.5867  19.6033  19.6182  19.6309  19.6555  19.7041  19.7197
 19.7569  19.7768  19.8893  19.9043  19.9136  20.0963  20.5441  20.6090
 20.6511  20.6772  20.7678  20.7753  20.7831  20.8769  20.9935  21.1230
 21.8478  21.8768  21.8956  21.9042  21.9713  21.9795  22.0008  22.0200
 22.0491  22.1273  22.2394  22.2450  22.3255  22.3405  22.3739  22.4697
 22.6361  22.7710  22.7807  22.8471  22.8822  22.8952  23.0203  23.0358
 23.0578  23.0661  23.0852  23.1238  23.1964  23.2074  23.3512  23.5719
 23.7299  23.7467  23.8129  24.0245  24.2776  24.3388  24.3638  24.4566
 24.5428  24.5525  24.6747  24.8898  25.0063  25.0281  25.0690  25.0896
 25.1845  25.4138  25.5059  25.8533  25.9349  26.2690  26.4762  63.8960
 64.1070  64.1885  64.3723  64.8210
 --------------------------------------------------------------


                        RESTRICTED (RHF) MOLECULAR ORBITAL COEFFICIENTS
                         1         2         3         4         5         6
 eigenvalues:        -19.202   -19.157   -19.118   -19.107   -19.100    -1.087
   1  O 1   s        0.00006  -0.97864   0.00000  -0.00004   0.00003  -0.00341
   2  O 1   s        0.00010  -0.03117   0.00000  -0.00003   0.00002   0.04983
   3  O 1   s        0.00017  -0.08541   0.00001  -0.00006   0.00003   0.00136
   4  O 1   s       -0.00025   0.01654  -0.00010   0.00032  -0.00029   0.05613
   5  O 1   s       -0.00121   0.01268   0.00071  -0.00096   0.00156   0.07937
   6  O 1   s       -0.00026   0.00545   0.00195   0.00145   0.00143   0.03493
   7  O 1   px      -0.00000  -0.00083  -0.00000   0.00000  -0.00000   0.00304
   8  O 1   py      -0.00000   0.00043   0.00000   0.00001   0.00000  -0.00213
   9  O 1   pz       0.00000  -0.00066   0.00000   0.00000   0.00000   0.00347
  10  O 1   px      -0.00000  -0.00050   0.00000  -0.00000  -0.00001   0.00493
  11  O 1   py       0.00001   0.00039  -0.00000  -0.00004   0.00001  -0.00338
  12  O 1   pz       0.00006  -0.00056  -0.00002  -0.00004  -0.00003   0.00540
  13  O 1   px       0.00008   0.00709   0.00006  -0.00010   0.00010   0.00830
  14  O 1   py       0.00017  -0.00417  -0.00001   0.00011  -0.00000  -0.00593
  15  O 1   pz      -0.00082   0.00632   0.00006   0.00037   0.00017   0.00999
  16  O 1   px      -0.00015   0.00080   0.00011  -0.00046   0.00075   0.00509
  17  O 1   py       0.00024   0.00091  -0.00001   0.00013  -0.00106  -0.00484
  18  O 1   pz      -0.00067  -0.00019   0.00050  -0.00027   0.00034   0.00844
  19  O 1   px      -0.00008   0.00107   0.00032   0.00069   0.00011   0.00072
  20  O 1   py       0.00007   0.00017  -0.00009   0.00018   0.00006  -0.00025
  21  O 1   pz      -0.00001  -0.00007   0.00013   0.00033   0.00013   0.00226
  22  O 1   d 1      0.00000   0.00007  -0.00000  -0.00000   0.00000  -0.00003
  23  O 1   d 2     -0.00001   0.00010   0.00000   0.00000  -0.00000  -0.00004
  24  O 1   d 3      0.00000  -0.00006   0.00000  -0.00000  -0.00000   0.00003
  25  O 1   d 4     -0.00000   0.00008  -0.00000   0.00001  -0.00000   0.00000
  26  O 1   d 5     -0.00000  -0.00018   0.00000  -0.00001  -0.00000   0.00004
  27  O 1   d 1     -0.00000  -0.00011   0.00000   0.00002   0.00000  -0.00015
  28  O 1   d 2      0.00003  -0.00017  -0.00000  -0.00001   0.00000  -0.00023
  29  O 1   d 3     -0.00001   0.00009  -0.00001   0.00001   0.00001   0.00013
  30  O 1   d 4      0.00002  -0.00013   0.00001  -0.00003   0.00001  -0.00002
  31  O 1   d 5      0.00001   0.00030  -0.00000   0.00003   0.00000   0.00028
  32  O 1   d 1      0.00002  -0.00096  -0.00001  -0.00005  -0.00006  -0.00071
  33  O 1   d 2      0.00009  -0.00136   0.00002  -0.00002  -0.00005  -0.00140
  34  O 1   d 3     -0.00038   0.00107   0.00003   0.00015  -0.00004   0.00126
  35  O 1   d 4     -0.00004  -0.00078  -0.00005   0.00013  -0.00007  -0.00048
  36  O 1   d 5      0.00002   0.00208   0.00006  -0.00019   0.00001   0.00134
  37  O 1   d 1      0.00013   0.00077   0.00003   0.00024  -0.00040   0.00002
  38  O 1   d 2      0.00017   0.00134   0.00009   0.00036  -0.00029  -0.00090
  39  O 1   d 3     -0.00027  -0.00075   0.00001  -0.00017  -0.00003   0.00101
  40  O 1   d 4     -0.00006   0.00028  -0.00016   0.00082  -0.00015  -0.00067
  41  O 1   d 5      0.00008  -0.00084   0.00019   0.00030   0.00043   0.00084
  42  O 1   f 1     -0.00000   0.00004   0.00000  -0.00001   0.00000  -0.00000
  43  O 1   f 2     -0.00000  -0.00002   0.00000  -0.00001  -0.00000  -0.00000
  44  O 1   f 3      0.00000   0.00006   0.00000   0.00000   0.00000   0.00000
  45  O 1   f 4      0.00000  -0.00010  -0.00000  -0.00000   0.00000  -0.00001
  46  O 1   f 5      0.00001   0.00008   0.00000  -0.00000   0.00000  -0.00000
  47  O 1   f 6      0.00001   0.00003  -0.00000  -0.00000   0.00000  -0.00001
  48  O 1   f 7     -0.00000  -0.00007   0.00000   0.00001  -0.00000   0.00001
  49  O 1   f 1      0.00000  -0.00036  -0.00001   0.00003  -0.00002  -0.00018
  50  O 1   f 2      0.00000   0.00014  -0.00000   0.00002   0.00001   0.00004
  51  O 1   f 3      0.00002  -0.00048  -0.00000  -0.00002  -0.00001  -0.00029
  52  O 1   f 4     -0.00006   0.00078   0.00001   0.00001  -0.00000   0.00038
  53  O 1   f 5     -0.00002  -0.00064  -0.00002   0.00001  -0.00001  -0.00027
  54  O 1   f 6     -0.00001  -0.00029   0.00001   0.00000  -0.00001  -0.00011
  55  O 1   f 7      0.00001   0.00060   0.00000  -0.00004   0.00000   0.00023
  56  O 1   f 1      0.00001   0.00013  -0.00002  -0.00013  -0.00006  -0.00037
  57  O 1   f 2      0.00002   0.00002   0.00003  -0.00024   0.00002   0.00010
  58  O 1   f 3      0.00007   0.00036   0.00005   0.00011  -0.00001  -0.00049
  59  O 1   f 4     -0.00011  -0.00031   0.00001  -0.00002  -0.00000   0.00070
  60  O 1   f 5     -0.00004   0.00025  -0.00012   0.00020  -0.00014  -0.00054
  61  O 1   f 6      0.00002   0.00006   0.00007   0.00010   0.00004  -0.00033
  62  O 1   f 7      0.00003  -0.00020   0.00002  -0.00005   0.00000   0.00035
  63  O 1   g 1     -0.00000  -0.00006  -0.00000   0.00000   0.00000  -0.00002
  64  O 1   g 2      0.00000   0.00002   0.00000   0.00000   0.00000   0.00000
  65  O 1   g 3      0.00000   0.00004  -0.00000   0.00001  -0.00000   0.00001
  66  O 1   g 4     -0.00000  -0.00010  -0.00000  -0.00000   0.00000  -0.00003
  67  O 1   g 5     -0.00000   0.00009  -0.00000  -0.00000   0.00000   0.00003
  68  O 1   g 6      0.00000   0.00000   0.00000  -0.00000   0.00000   0.00000
  69  O 1   g 7     -0.00000  -0.00008  -0.00000  -0.00000   0.00000  -0.00003
  70  O 1   g 8     -0.00000  -0.00002  -0.00000   0.00000   0.00000   0.00000
  71  O 1   g 9     -0.00000   0.00005   0.00000   0.00000   0.00001   0.00001
  72  O 1   g 1      0.00000  -0.00005  -0.00000  -0.00000  -0.00002  -0.00010
  73  O 1   g 2      0.00000   0.00004  -0.00001  -0.00003   0.00000   0.00003
  74  O 1   g 3      0.00001   0.00004   0.00001  -0.00004   0.00002   0.00007
  75  O 1   g 4      0.00002  -0.00000   0.00001   0.00002  -0.00002  -0.00019
  76  O 1   g 5     -0.00002   0.00007   0.00002   0.00001  -0.00002   0.00019
  77  O 1   g 6     -0.00001   0.00005  -0.00004   0.00002  -0.00003  -0.00003
  78  O 1   g 7     -0.00000  -0.00007   0.00000   0.00003  -0.00001  -0.00013
  79  O 1   g 8      0.00000  -0.00001   0.00001  -0.00001   0.00001  -0.00003
  80  O 1   g 9      0.00001   0.00006  -0.00000  -0.00003  -0.00004   0.00007
  81  O 1   h 1     -0.00000  -0.00006  -0.00000  -0.00000  -0.00000  -0.00002
  82  O 1   h 2     -0.00000   0.00002  -0.00000  -0.00000   0.00000   0.00000
  83  O 1   h 3      0.00000   0.00004   0.00000  -0.00000   0.00000   0.00001
  84  O 1   h 4      0.00000   0.00000   0.00000  -0.00001   0.00000   0.00001
  85  O 1   h 5     -0.00000  -0.00006  -0.00000  -0.00000  -0.00000  -0.00005
  86  O 1   h 6     -0.00000   0.00001   0.00000   0.00001  -0.00000   0.00002
  87  O 1   h 7     -0.00000   0.00003  -0.00000   0.00000  -0.00000   0.00001
  88  O 1   h 8     -0.00000  -0.00001  -0.00000   0.00000  -0.00000  -0.00001
  89  O 1   h 9      0.00000  -0.00003  -0.00000  -0.00000   0.00000  -0.00001
  90  O 1   h10      0.00000  -0.00001   0.00000  -0.00000   0.00000  -0.00000
  91  O 1   h11      0.00000   0.00003  -0.00000  -0.00000  -0.00001   0.00001
  92  H 1   s        0.00001   0.00027  -0.00000  -0.00001   0.00000   0.00445
  93  H 1   s       -0.00004   0.00089   0.00003   0.00000   0.00005   0.00976
  94  H 1   s        0.00001  -0.00897  -0.00051   0.00082  -0.00140   0.01017
  95  H 1   s        0.00014  -0.00500  -0.00084  -0.00062  -0.00062   0.00285
  96  H 1   s        0.00002  -0.00033   0.00005   0.00001   0.00006   0.00089
  97  H 1   px      -0.00000  -0.00024   0.00000  -0.00000   0.00000  -0.00035
  98  H 1   py      -0.00000   0.00003  -0.00000  -0.00001   0.00000   0.00006
  99  H 1   pz       0.00000   0.00002  -0.00000  -0.00000   0.00000   0.00007
 100  H 1   px       0.00003   0.00057  -0.00001  -0.00001  -0.00004  -0.00097
 101  H 1   py       0.00001  -0.00004   0.00001   0.00004  -0.00002   0.00016
 102  H 1   pz      -0.00002  -0.00007   0.00001   0.00002  -0.00001   0.00022
 103  H 1   px       0.00000   0.00745   0.00022  -0.00048   0.00056  -0.00089
 104  H 1   py      -0.00010  -0.00185  -0.00005   0.00012   0.00016   0.00004
 105  H 1   pz       0.00004  -0.00062  -0.00014  -0.00018  -0.00010   0.00073
 106  H 1   px      -0.00006   0.00352   0.00030  -0.00010   0.00031  -0.00025
 107  H 1   py      -0.00005  -0.00098  -0.00012  -0.00025   0.00001  -0.00050
 108  H 1   pz       0.00002  -0.00048   0.00004  -0.00011  -0.00003   0.00071
 109  H 1   d 1     -0.00000  -0.00004   0.00000   0.00001   0.00000  -0.00004
 110  H 1   d 2      0.00001   0.00000   0.00000  -0.00001   0.00000   0.00000
 111  H 1   d 3     -0.00000  -0.00006   0.00000   0.00000  -0.00000  -0.00006
 112  H 1   d 4      0.00000   0.00000  -0.00001  -0.00001  -0.00000  -0.00004
 113  H 1   d 5      0.00000   0.00008   0.00000   0.00000   0.00001   0.00011
 114  H 1   d 1      0.00002   0.00091  -0.00000  -0.00008  -0.00004  -0.00005
 115  H 1   d 2     -0.00002  -0.00008  -0.00001   0.00006   0.00000  -0.00000
 116  H 1   d 3      0.00002   0.00129   0.00000  -0.00006   0.00002  -0.00003
 117  H 1   d 4      0.00000   0.00036   0.00006   0.00003   0.00003  -0.00010
 118  H 1   d 5     -0.00001  -0.00202  -0.00002   0.00004  -0.00008   0.00010
 119  H 1   d 1      0.00005   0.00120   0.00004   0.00003  -0.00008   0.00002
 120  H 1   d 2      0.00000  -0.00027  -0.00002  -0.00009   0.00001   0.00001
 121  H 1   d 3      0.00001   0.00160   0.00005  -0.00005   0.00006   0.00005
 122  H 1   d 4     -0.00001   0.00065   0.00004   0.00004   0.00003  -0.00029
 123  H 1   d 5      0.00002  -0.00239  -0.00005   0.00010  -0.00009   0.00015
 124  H 1   f 1     -0.00000  -0.00016  -0.00000   0.00001   0.00000   0.00002
 125  H 1   f 2     -0.00000   0.00001   0.00000  -0.00001  -0.00000   0.00000
 126  H 1   f 3     -0.00000   0.00002  -0.00000  -0.00000  -0.00001  -0.00001
 127  H 1   f 4     -0.00000   0.00005   0.00000  -0.00000  -0.00000  -0.00001
 128  H 1   f 5      0.00000  -0.00019   0.00000   0.00000   0.00000   0.00001
 129  H 1   f 6      0.00000  -0.00004  -0.00000  -0.00001  -0.00001   0.00001
 130  H 1   f 7     -0.00000   0.00020   0.00000  -0.00001   0.00001  -0.00002
 131  H 1   f 1     -0.00001  -0.00065  -0.00000   0.00000   0.00003   0.00005
 132  H 1   f 2      0.00001   0.00015   0.00001  -0.00001   0.00001  -0.00002
 133  H 1   f 3      0.00001   0.00022   0.00001  -0.00000   0.00000  -0.00000
 134  H 1   f 4      0.00000   0.00023   0.00002   0.00000   0.00002  -0.00003
 135  H 1   f 5     -0.00001  -0.00079  -0.00001   0.00002  -0.00002   0.00002
 136  H 1   f 6      0.00000  -0.00028  -0.00002   0.00000  -0.00000   0.00004
 137  H 1   f 7      0.00000   0.00089   0.00001   0.00001  -0.00000  -0.00006
 138  H 1   g 1      0.00000   0.00010   0.00000  -0.00000  -0.00001  -0.00001
 139  H 1   g 2      0.00000  -0.00001  -0.00000   0.00000   0.00000   0.00001
 140  H 1   g 3     -0.00000  -0.00003   0.00000  -0.00000   0.00000   0.00001
 141  H 1   g 4     -0.00000   0.00001   0.00000  -0.00000   0.00000  -0.00000
 142  H 1   g 5      0.00000  -0.00005   0.00000   0.00000  -0.00000   0.00001
 143  H 1   g 6      0.00000  -0.00004  -0.00000  -0.00000  -0.00000   0.00001
 144  H 1   g 7     -0.00000   0.00008  -0.00000   0.00000   0.00000  -0.00001
 145  H 1   g 8     -0.00000   0.00003   0.00000   0.00000  -0.00000  -0.00001
 146  H 1   g 9      0.00000  -0.00008  -0.00000  -0.00000  -0.00000   0.00002
 147  H 2   s       -0.00001   0.00014  -0.00000  -0.00001   0.00000   0.00560
 148  H 2   s       -0.00027   0.00182   0.00005   0.00016   0.00002   0.01259
 149  H 2   s        0.00214  -0.00764  -0.00028   0.00034  -0.00066   0.01413
 150  H 2   s        0.00042  -0.00208  -0.00110  -0.00080  -0.00073  -0.00078
 151  H 2   s       -0.00004   0.00077  -0.00020  -0.00008   0.00010  -0.00192
 152  H 2   px       0.00000   0.00002   0.00000   0.00000  -0.00000   0.00005
 153  H 2   py       0.00000   0.00004   0.00000  -0.00000   0.00001   0.00006
 154  H 2   pz      -0.00001  -0.00018  -0.00001   0.00000   0.00000  -0.00027
 155  H 2   px      -0.00002  -0.00005  -0.00002   0.00001  -0.00000   0.00010
 156  H 2   py      -0.00003   0.00012   0.00000   0.00002  -0.00004   0.00003
 157  H 2   pz       0.00009  -0.00008   0.00004  -0.00004  -0.00001  -0.00051
 158  H 2   px       0.00024  -0.00034   0.00019  -0.00032   0.00008   0.00053
 159  H 2   py       0.00042  -0.00264  -0.00014  -0.00016   0.00008  -0.00150
 160  H 2   pz      -0.00108   0.00681   0.00000  -0.00004   0.00035   0.00188
 161  H 2   px       0.00007  -0.00015   0.00009  -0.00038   0.00002   0.00069
 162  H 2   py      -0.00024  -0.00090  -0.00041  -0.00034  -0.00007  -0.00082
 163  H 2   pz       0.00036   0.00172   0.00058   0.00042   0.00042   0.00171
 164  H 2   d 1     -0.00001   0.00001  -0.00000  -0.00000  -0.00000   0.00001
 165  H 2   d 2      0.00005  -0.00012   0.00000  -0.00001   0.00000  -0.00013
 166  H 2   d 3     -0.00005   0.00023  -0.00000   0.00001   0.00001   0.00016
 167  H 2   d 4      0.00001  -0.00002  -0.00000  -0.00001   0.00000  -0.00004
 168  H 2   d 5      0.00000  -0.00002  -0.00001   0.00000   0.00000  -0.00003
 169  H 2   d 1      0.00005  -0.00010   0.00002  -0.00000   0.00001   0.00005
 170  H 2   d 2     -0.00025   0.00125   0.00001   0.00007  -0.00001  -0.00004
 171  H 2   d 3      0.00029  -0.00219  -0.00000  -0.00000  -0.00006   0.00000
 172  H 2   d 4     -0.00008   0.00027  -0.00002   0.00009  -0.00003  -0.00010
 173  H 2   d 5     -0.00002   0.00021   0.00003   0.00001  -0.00001   0.00001
 174  H 2   d 1      0.00002  -0.00028   0.00003  -0.00014   0.00010  -0.00000
 175  H 2   d 2     -0.00027   0.00203   0.00018   0.00014   0.00002  -0.00010
 176  H 2   d 3      0.00017  -0.00252  -0.00003  -0.00006  -0.00014  -0.00023
 177  H 2   d 4     -0.00013   0.00040  -0.00018   0.00019  -0.00005  -0.00024
 178  H 2   d 5     -0.00013   0.00059   0.00002  -0.00007  -0.00008  -0.00003
 179  H 2   f 1     -0.00000  -0.00000  -0.00000  -0.00000   0.00000   0.00000
 180  H 2   f 2      0.00000   0.00001   0.00000   0.00000   0.00000   0.00001
 181  H 2   f 3     -0.00002  -0.00020  -0.00000  -0.00000   0.00000  -0.00003
 182  H 2   f 4      0.00001   0.00020   0.00000  -0.00000   0.00001   0.00001
 183  H 2   f 5     -0.00000  -0.00004   0.00000  -0.00001   0.00000   0.00000
 184  H 2   f 6     -0.00000  -0.00006   0.00000  -0.00001   0.00000  -0.00002
 185  H 2   f 7      0.00001   0.00002  -0.00000  -0.00000  -0.00000   0.00000
 186  H 2   f 1      0.00001   0.00007   0.00002   0.00000  -0.00002   0.00001
 187  H 2   f 2     -0.00006   0.00021  -0.00003   0.00004  -0.00004  -0.00009
 188  H 2   f 3      0.00023  -0.00110  -0.00002  -0.00008  -0.00003   0.00003
 189  H 2   f 4     -0.00013   0.00113  -0.00002   0.00001   0.00003  -0.00004
 190  H 2   f 5      0.00008  -0.00028   0.00005  -0.00003   0.00002   0.00011
 191  H 2   f 6      0.00006  -0.00031  -0.00003   0.00004   0.00001  -0.00003
 192  H 2   f 7     -0.00003   0.00004  -0.00000   0.00002  -0.00001  -0.00001
 193  H 2   g 1      0.00000   0.00001  -0.00000   0.00000  -0.00000  -0.00000
 194  H 2   g 2      0.00000  -0.00001  -0.00000  -0.00000   0.00000  -0.00001
 195  H 2   g 3      0.00001  -0.00004   0.00000  -0.00000   0.00000  -0.00000
 196  H 2   g 4     -0.00002   0.00019   0.00000   0.00001   0.00000   0.00002
 197  H 2   g 5      0.00000  -0.00013   0.00000   0.00000  -0.00000   0.00000
 198  H 2   g 6     -0.00001   0.00005  -0.00001   0.00000  -0.00000  -0.00000
 199  H 2   g 7     -0.00001   0.00008   0.00001  -0.00000  -0.00000   0.00002
 200  H 2   g 8      0.00000  -0.00001   0.00000  -0.00000   0.00000  -0.00000
 201  H 2   g 9      0.00000  -0.00000  -0.00000  -0.00000   0.00000  -0.00000
 202  O 2   s       -0.00001   0.00000  -0.00002  -0.97845   0.00000  -0.00024
 203  O 2   s       -0.00001  -0.00002  -0.00001  -0.03087  -0.00000   0.00326
 204  O 2   s       -0.00002  -0.00004  -0.00002  -0.08495   0.00000   0.00008
 205  O 2   s        0.00005   0.00007   0.00004   0.01484   0.00004   0.00374
 206  O 2   s        0.00010   0.00040   0.00004   0.01598  -0.00030   0.00478
 207  O 2   s       -0.00018   0.00075  -0.00018   0.00132  -0.00044   0.00177
 208  O 2   px       0.00000  -0.00001  -0.00000  -0.00107   0.00000   0.00034
 209  O 2   py      -0.00000   0.00000   0.00000   0.00008  -0.00000   0.00009
 210  O 2   pz      -0.00000  -0.00001  -0.00000  -0.00044  -0.00000   0.00016
 211  O 2   px      -0.00000   0.00005  -0.00000  -0.00070   0.00000   0.00055
 212  O 2   py       0.00000  -0.00000  -0.00002  -0.00011   0.00001   0.00014
 213  O 2   pz       0.00000   0.00003   0.00000  -0.00025   0.00000   0.00025
 214  O 2   px       0.00004  -0.00007   0.00005   0.00845  -0.00004   0.00091
 215  O 2   py      -0.00000  -0.00010   0.00013   0.00042   0.00000   0.00014
 216  O 2   pz      -0.00000  -0.00003  -0.00002   0.00327  -0.00002   0.00048
 217  O 2   px      -0.00007   0.00059   0.00005   0.00070  -0.00021   0.00057
 218  O 2   py       0.00021  -0.00052   0.00016  -0.00005  -0.00009   0.00008
 219  O 2   pz      -0.00019   0.00037  -0.00009   0.00010  -0.00004   0.00043
 220  O 2   px      -0.00002   0.00020  -0.00001  -0.00003  -0.00006   0.00016
 221  O 2   py       0.00008  -0.00028   0.00000  -0.00037   0.00002  -0.00019
 222  O 2   pz      -0.00005   0.00014  -0.00002   0.00007  -0.00003   0.00022
 223  O 2   d 1      0.00000  -0.00000  -0.00000  -0.00003   0.00000   0.00000
 224  O 2   d 2      0.00000  -0.00000  -0.00000   0.00011  -0.00000  -0.00000
 225  O 2   d 3      0.00000   0.00000  -0.00000   0.00019  -0.00000  -0.00000
 226  O 2   d 4     -0.00000   0.00000  -0.00000  -0.00011  -0.00000   0.00000
 227  O 2   d 5     -0.00000  -0.00000   0.00000   0.00012  -0.00000   0.00000
 228  O 2   d 1     -0.00000   0.00002  -0.00000   0.00006  -0.00000   0.00001
 229  O 2   d 2     -0.00001   0.00002  -0.00000  -0.00017   0.00000  -0.00001
 230  O 2   d 3     -0.00000  -0.00001   0.00000  -0.00033   0.00000  -0.00002
 231  O 2   d 4      0.00000  -0.00000   0.00000   0.00020   0.00000   0.00002
 232  O 2   d 5      0.00000   0.00001  -0.00000  -0.00017   0.00000  -0.00001
 233  O 2   d 1      0.00002  -0.00014   0.00007   0.00066   0.00001   0.00005
 234  O 2   d 2      0.00003  -0.00015   0.00002  -0.00125   0.00001  -0.00003
 235  O 2   d 3     -0.00002  -0.00003  -0.00002  -0.00230   0.00002  -0.00009
 236  O 2   d 4     -0.00002   0.00001  -0.00001   0.00092  -0.00001   0.00011
 237  O 2   d 5     -0.00003  -0.00017   0.00001  -0.00190   0.00001   0.00001
 238  O 2   d 1      0.00007  -0.00015   0.00005  -0.00021  -0.00001   0.00004
 239  O 2   d 2      0.00011  -0.00006   0.00002   0.00000   0.00003   0.00004
 240  O 2   d 3     -0.00008  -0.00005  -0.00000   0.00044   0.00002  -0.00003
 241  O 2   d 4     -0.00009   0.00027  -0.00002  -0.00038  -0.00003   0.00015
 242  O 2   d 5     -0.00005   0.00031   0.00008   0.00004  -0.00003  -0.00006
 243  O 2   f 1     -0.00000   0.00001  -0.00000  -0.00004  -0.00000  -0.00000
 244  O 2   f 2     -0.00000   0.00001  -0.00000   0.00004  -0.00000  -0.00000
 245  O 2   f 3     -0.00000   0.00000   0.00000   0.00004  -0.00000   0.00000
 246  O 2   f 4     -0.00000  -0.00001   0.00000   0.00006   0.00000   0.00000
 247  O 2   f 5     -0.00000  -0.00000   0.00000   0.00005  -0.00000   0.00000
 248  O 2   f 6     -0.00000   0.00000  -0.00000   0.00004  -0.00000  -0.00000
 249  O 2   f 7      0.00000   0.00001   0.00000   0.00015  -0.00000  -0.00000
 250  O 2   f 1      0.00000  -0.00005   0.00001   0.00028   0.00000   0.00001
 251  O 2   f 2      0.00000  -0.00004   0.00001  -0.00037   0.00001  -0.00001
 252  O 2   f 3      0.00000  -0.00001  -0.00001  -0.00030   0.00000  -0.00001
 253  O 2   f 4      0.00000   0.00002   0.00000  -0.00049  -0.00000  -0.00002
 254  O 2   f 5      0.00000   0.00001  -0.00000  -0.00042   0.00000  -0.00001
 255  O 2   f 6      0.00000  -0.00001   0.00000  -0.00032   0.00000  -0.00000
 256  O 2   f 7     -0.00000  -0.00005  -0.00000  -0.00125   0.00001  -0.00003
 257  O 2   f 1      0.00001  -0.00011   0.00002  -0.00015   0.00003   0.00000
 258  O 2   f 2      0.00005  -0.00002   0.00001   0.00008   0.00002   0.00001
 259  O 2   f 3      0.00003  -0.00005  -0.00000   0.00009   0.00002  -0.00004
 260  O 2   f 4      0.00001  -0.00001   0.00001   0.00025  -0.00001  -0.00006
 261  O 2   f 5     -0.00003  -0.00001  -0.00001   0.00018   0.00000   0.00000
 262  O 2   f 6     -0.00000   0.00017   0.00001   0.00008  -0.00003  -0.00004
 263  O 2   f 7     -0.00001   0.00004   0.00002   0.00043   0.00000  -0.00005
 264  O 2   g 1      0.00000  -0.00000  -0.00000   0.00001  -0.00000   0.00000
 265  O 2   g 2     -0.00000  -0.00000  -0.00000   0.00000  -0.00000   0.00000
 266  O 2   g 3     -0.00000   0.00000  -0.00000  -0.00006  -0.00000  -0.00000
 267  O 2   g 4      0.00000   0.00000  -0.00000   0.00004  -0.00000   0.00000
 268  O 2   g 5     -0.00000  -0.00000   0.00000   0.00004  -0.00000   0.00000
 269  O 2   g 6      0.00000   0.00000   0.00000  -0.00005   0.00000  -0.00000
 270  O 2   g 7     -0.00000  -0.00000   0.00000   0.00002   0.00000   0.00000
 271  O 2   g 8     -0.00000  -0.00001  -0.00000  -0.00009   0.00000  -0.00000
 272  O 2   g 9     -0.00000   0.00000  -0.00000  -0.00012  -0.00000  -0.00000
 273  O 2   g 1      0.00000  -0.00004   0.00000  -0.00000   0.00001  -0.00000
 274  O 2   g 2      0.00000   0.00001   0.00000   0.00002   0.00001  -0.00001
 275  O 2   g 3      0.00001  -0.00001  -0.00000  -0.00001   0.00000  -0.00001
 276  O 2   g 4     -0.00000   0.00001  -0.00000   0.00003  -0.00000  -0.00001
 277  O 2   g 5      0.00001   0.00001   0.00000   0.00002  -0.00000  -0.00000
 278  O 2   g 6     -0.00000  -0.00001  -0.00000   0.00000  -0.00000  -0.00001
 279  O 2   g 7      0.00000   0.00002  -0.00000   0.00003  -0.00000  -0.00000
 280  O 2   g 8      0.00000   0.00004   0.00000  -0.00002  -0.00001  -0.00002
 281  O 2   g 9      0.00000   0.00001   0.00000   0.00005   0.00001  -0.00002
 282  O 2   h 1      0.00000  -0.00000  -0.00000  -0.00002   0.00000  -0.00000
 283  O 2   h 2     -0.00000   0.00000  -0.00000   0.00003   0.00000  -0.00000
 284  O 2   h 3      0.00000   0.00000  -0.00000  -0.00001   0.00000  -0.00000
 285  O 2   h 4      0.00000   0.00000  -0.00000   0.00002  -0.00000  -0.00000
 286  O 2   h 5     -0.00000   0.00000  -0.00000   0.00004  -0.00000   0.00000
 287  O 2   h 6      0.00000  -0.00000  -0.00000   0.00003   0.00000   0.00000
 288  O 2   h 7      0.00000  -0.00000   0.00000   0.00001  -0.00000   0.00000
 289  O 2   h 8      0.00000  -0.00000  -0.00000   0.00003   0.00000   0.00000
 290  O 2   h 9      0.00000   0.00000  -0.00000   0.00003  -0.00000   0.00000
 291  O 2   h10      0.00000   0.00000   0.00000  -0.00003   0.00000  -0.00000
 292  O 2   h11      0.00000   0.00000  -0.00000   0.00002   0.00000  -0.00000
 293  H 3   s       -0.00000  -0.00000  -0.00000   0.00021  -0.00000   0.00028
 294  H 3   s        0.00002   0.00017  -0.00000   0.00156  -0.00002   0.00067
 295  H 3   s        0.00015  -0.00092   0.00020  -0.00997   0.00015   0.00053
 296  H 3   s        0.00029  -0.00093   0.00024  -0.00164   0.00021   0.00035
 297  H 3   s        0.00005  -0.00005  -0.00003  -0.00037   0.00001  -0.00016
 298  H 3   px      -0.00000   0.00000  -0.00000  -0.00011  -0.00000  -0.00001
 299  H 3   py       0.00000  -0.00001  -0.00000   0.00016   0.00000   0.00002
 300  H 3   pz      -0.00000   0.00000  -0.00000  -0.00008  -0.00000  -0.00001
 301  H 3   px      -0.00000  -0.00001   0.00000   0.00004   0.00000  -0.00002
 302  H 3   py      -0.00000   0.00007   0.00000  -0.00008  -0.00001   0.00007
 303  H 3   pz       0.00000  -0.00002   0.00000   0.00003   0.00000   0.00000
 304  H 3   px      -0.00001   0.00002  -0.00006   0.00410   0.00001  -0.00002
 305  H 3   py       0.00008  -0.00056   0.00007  -0.00625   0.00011   0.00000
 306  H 3   pz       0.00006   0.00014  -0.00005   0.00305  -0.00003  -0.00010
 307  H 3   px      -0.00001   0.00017  -0.00006   0.00126  -0.00002   0.00022
 308  H 3   py       0.00015  -0.00042   0.00012  -0.00185   0.00011   0.00003
 309  H 3   pz       0.00009   0.00014  -0.00002   0.00092  -0.00001   0.00030
 310  H 3   d 1     -0.00000   0.00000   0.00000  -0.00014   0.00000  -0.00001
 311  H 3   d 2     -0.00000  -0.00001   0.00000  -0.00010   0.00000  -0.00000
 312  H 3   d 3      0.00000  -0.00001  -0.00000  -0.00006   0.00000   0.00000
 313  H 3   d 4      0.00000   0.00000   0.00000   0.00007   0.00000   0.00001
 314  H 3   d 5     -0.00000  -0.00001  -0.00000  -0.00006   0.00000  -0.00001
 315  H 3   d 1     -0.00000   0.00000  -0.00001   0.00177  -0.00000  -0.00000
 316  H 3   d 2      0.00001   0.00004  -0.00001   0.00132  -0.00002  -0.00002
 317  H 3   d 3     -0.00002   0.00004  -0.00000   0.00076  -0.00000  -0.00002
 318  H 3   d 4     -0.00001  -0.00002   0.00000  -0.00091  -0.00000  -0.00000
 319  H 3   d 5     -0.00001   0.00005  -0.00000   0.00074  -0.00002   0.00001
 320  H 3   d 1      0.00000   0.00015  -0.00003   0.00210  -0.00002   0.00003
 321  H 3   d 2      0.00006   0.00010  -0.00001   0.00157  -0.00002   0.00003
 322  H 3   d 3     -0.00004   0.00006  -0.00002   0.00088  -0.00002   0.00010
 323  H 3   d 4     -0.00004  -0.00000   0.00002  -0.00098  -0.00000   0.00007
 324  H 3   d 5     -0.00005   0.00021  -0.00002   0.00095  -0.00006   0.00002
 325  H 3   f 1      0.00000  -0.00000   0.00000  -0.00004  -0.00000   0.00000
 326  H 3   f 2      0.00000  -0.00000   0.00000  -0.00018   0.00000   0.00000
 327  H 3   f 3     -0.00000   0.00000   0.00000   0.00004   0.00000  -0.00000
 328  H 3   f 4     -0.00000  -0.00000   0.00000  -0.00014   0.00000  -0.00000
 329  H 3   f 5      0.00000   0.00000   0.00000  -0.00003  -0.00000  -0.00000
 330  H 3   f 6      0.00000  -0.00000   0.00000  -0.00007   0.00000  -0.00000
 331  H 3   f 7      0.00000   0.00000   0.00000  -0.00019  -0.00000  -0.00000
 332  H 3   f 1     -0.00001   0.00003  -0.00000  -0.00014  -0.00001   0.00001
 333  H 3   f 2     -0.00002  -0.00002   0.00000  -0.00085   0.00000   0.00001
 334  H 3   f 3     -0.00002   0.00001  -0.00000   0.00021  -0.00000   0.00002
 335  H 3   f 4     -0.00001  -0.00002   0.00000  -0.00067   0.00000   0.00001
 336  H 3   f 5      0.00001  -0.00001   0.00000  -0.00014   0.00000   0.00000
 337  H 3   f 6     -0.00001  -0.00002   0.00000  -0.00035   0.00001  -0.00000
 338  H 3   f 7      0.00000  -0.00005   0.00001  -0.00089   0.00001  -0.00001
 339  H 3   g 1      0.00000  -0.00000   0.00000  -0.00008   0.00000  -0.00000
 340  H 3   g 2      0.00000  -0.00000   0.00000   0.00003   0.00000  -0.00000
 341  H 3   g 3      0.00000  -0.00000  -0.00000   0.00000  -0.00000  -0.00000
 342  H 3   g 4     -0.00000  -0.00000   0.00000  -0.00010   0.00000   0.00000
 343  H 3   g 5      0.00000  -0.00000   0.00000   0.00002  -0.00000  -0.00000
 344  H 3   g 6      0.00000   0.00000  -0.00000   0.00007   0.00000  -0.00000
 345  H 3   g 7      0.00000  -0.00000   0.00000  -0.00000   0.00000  -0.00000
 346  H 3   g 8      0.00000   0.00000  -0.00000   0.00012  -0.00000  -0.00000
 347  H 3   g 9      0.00000  -0.00000   0.00000   0.00007   0.00000  -0.00000
 348  H 4   s       -0.00000   0.00000  -0.00000   0.00016   0.00000   0.00047
 349  H 4   s        0.00002   0.00001   0.00005   0.00199  -0.00002   0.00101
 350  H 4   s       -0.00017   0.00012  -0.00030  -0.01037   0.00020   0.00155
 351  H 4   s       -0.00023  -0.00017   0.00001  -0.00123   0.00026   0.00082
 352  H 4   s       -0.00003   0.00022   0.00005   0.00041  -0.00004   0.00065
 353  H 4   px       0.00000  -0.00000  -0.00000  -0.00013   0.00000  -0.00001
 354  H 4   py       0.00000   0.00001  -0.00000  -0.00017   0.00001  -0.00002
 355  H 4   pz       0.00000  -0.00000  -0.00000  -0.00001   0.00000   0.00000
 356  H 4   px      -0.00001   0.00000  -0.00000  -0.00005  -0.00002   0.00003
 357  H 4   py      -0.00000  -0.00001  -0.00001   0.00002  -0.00003  -0.00001
 358  H 4   pz      -0.00001   0.00002   0.00001  -0.00002  -0.00001   0.00005
 359  H 4   px       0.00007   0.00005   0.00006   0.00550  -0.00003   0.00014
 360  H 4   py       0.00005  -0.00010   0.00015   0.00647   0.00000  -0.00005
 361  H 4   pz       0.00001   0.00003  -0.00001   0.00072  -0.00001   0.00003
 362  H 4   px       0.00004  -0.00078  -0.00003   0.00108  -0.00003  -0.00002
 363  H 4   py       0.00006  -0.00006   0.00012   0.00136  -0.00018  -0.00018
 364  H 4   pz      -0.00004  -0.00024   0.00006   0.00024  -0.00002   0.00003
 365  H 4   d 1      0.00000   0.00003   0.00000   0.00020  -0.00000   0.00001
 366  H 4   d 2      0.00000   0.00002  -0.00000   0.00001  -0.00001  -0.00000
 367  H 4   d 3      0.00000   0.00000   0.00000  -0.00013  -0.00000  -0.00000
 368  H 4   d 4     -0.00000   0.00001   0.00000  -0.00001   0.00000   0.00000
 369  H 4   d 5      0.00000   0.00001  -0.00000  -0.00006   0.00000  -0.00000
 370  H 4   d 1     -0.00001  -0.00011  -0.00003  -0.00224   0.00002   0.00003
 371  H 4   d 2     -0.00000  -0.00009   0.00000  -0.00017   0.00003   0.00003
 372  H 4   d 3      0.00000  -0.00000   0.00001   0.00135  -0.00000  -0.00003
 373  H 4   d 4      0.00001  -0.00005  -0.00000  -0.00012   0.00000   0.00005
 374  H 4   d 5     -0.00000  -0.00008   0.00002   0.00052  -0.00002   0.00002
 375  H 4   d 1     -0.00004   0.00018  -0.00002  -0.00310  -0.00000   0.00008
 376  H 4   d 2      0.00000   0.00012  -0.00002  -0.00064  -0.00003   0.00003
 377  H 4   d 3      0.00003   0.00005   0.00005   0.00171  -0.00002   0.00001
 378  H 4   d 4     -0.00001  -0.00019  -0.00001  -0.00062   0.00005   0.00010
 379  H 4   d 5     -0.00001  -0.00012   0.00006   0.00025   0.00005  -0.00003
 380  H 4   f 1      0.00000  -0.00000   0.00000   0.00012   0.00000   0.00000
 381  H 4   f 2      0.00000  -0.00001  -0.00000   0.00005   0.00000   0.00000
 382  H 4   f 3      0.00000   0.00000  -0.00000  -0.00014   0.00000   0.00000
 383  H 4   f 4     -0.00000  -0.00000   0.00000  -0.00004   0.00000  -0.00000
 384  H 4   f 5      0.00000  -0.00000  -0.00000  -0.00012  -0.00000   0.00000
 385  H 4   f 6      0.00000  -0.00001  -0.00000   0.00001  -0.00000   0.00001
 386  H 4   f 7      0.00000   0.00000  -0.00000  -0.00021   0.00000   0.00000
 387  H 4   f 1      0.00001   0.00009  -0.00000   0.00057  -0.00001  -0.00003
 388  H 4   f 2     -0.00000   0.00009   0.00001   0.00016  -0.00001  -0.00004
 389  H 4   f 3     -0.00001  -0.00000  -0.00002  -0.00076  -0.00000   0.00001
 390  H 4   f 4      0.00001  -0.00003  -0.00000  -0.00017   0.00000   0.00004
 391  H 4   f 5     -0.00001  -0.00002  -0.00001  -0.00065   0.00000   0.00001
 392  H 4   f 6     -0.00000   0.00007   0.00000  -0.00007   0.00001  -0.00002
 393  H 4   f 7     -0.00001   0.00004  -0.00002  -0.00111   0.00001   0.00000
 394  H 4   g 1     -0.00000  -0.00002   0.00000   0.00006   0.00000  -0.00000
 395  H 4   g 2      0.00000  -0.00002  -0.00000  -0.00002   0.00000  -0.00000
 396  H 4   g 3      0.00000   0.00000   0.00000   0.00013  -0.00000  -0.00000
 397  H 4   g 4     -0.00000   0.00000   0.00000   0.00003  -0.00000   0.00000
 398  H 4   g 5     -0.00000  -0.00000  -0.00000  -0.00009  -0.00000   0.00000
 399  H 4   g 6     -0.00000   0.00001   0.00000   0.00003  -0.00000   0.00000
 400  H 4   g 7     -0.00000   0.00001  -0.00000  -0.00002  -0.00000  -0.00000
 401  H 4   g 8     -0.00000   0.00000   0.00000   0.00002  -0.00000  -0.00000
 402  H 4   g 9      0.00000   0.00001   0.00000   0.00016  -0.00000  -0.00000
 403  O 3   s       -0.00000   0.00000  -0.00000   0.00001   0.97826  -0.00011
 404  O 3   s       -0.00000  -0.00002   0.00000   0.00001   0.03059   0.00162
 405  O 3   s       -0.00000  -0.00001  -0.00001   0.00001   0.08455   0.00006
 406  O 3   s       -0.00002  -0.00003   0.00011   0.00000  -0.01418   0.00180
 407  O 3   s        0.00014  -0.00000  -0.00037  -0.00033  -0.01216   0.00185
 408  O 3   s        0.00018  -0.00047  -0.00077  -0.00020  -0.00016   0.00108
 409  O 3   px       0.00000   0.00000   0.00000  -0.00000  -0.00054  -0.00002
 410  O 3   py      -0.00000  -0.00000   0.00000   0.00000  -0.00097  -0.00020
 411  O 3   pz       0.00000  -0.00000  -0.00000  -0.00000  -0.00037  -0.00006
 412  O 3   px      -0.00000  -0.00000  -0.00002   0.00000  -0.00029  -0.00002
 413  O 3   py       0.00000   0.00003  -0.00001  -0.00001  -0.00072  -0.00033
 414  O 3   pz      -0.00000   0.00000   0.00000  -0.00000  -0.00026  -0.00010
 415  O 3   px       0.00001  -0.00012   0.00006  -0.00001   0.00324  -0.00014
 416  O 3   py      -0.00002   0.00000   0.00005   0.00010   0.00781  -0.00038
 417  O 3   pz      -0.00000   0.00005  -0.00000   0.00003   0.00287  -0.00010
 418  O 3   px      -0.00009  -0.00039   0.00009  -0.00011  -0.00027  -0.00071
 419  O 3   py      -0.00006  -0.00007   0.00041   0.00012  -0.00006  -0.00013
 420  O 3   pz      -0.00003  -0.00003   0.00020   0.00000   0.00006  -0.00033
 421  O 3   px      -0.00002  -0.00009   0.00001   0.00003   0.00010  -0.00035
 422  O 3   py      -0.00002   0.00007   0.00015   0.00004  -0.00020  -0.00014
 423  O 3   pz       0.00001  -0.00000   0.00000  -0.00000  -0.00006  -0.00001
 424  O 3   d 1      0.00000  -0.00000   0.00000   0.00000  -0.00006  -0.00000
 425  O 3   d 2      0.00000   0.00000  -0.00000   0.00000   0.00012   0.00000
 426  O 3   d 3     -0.00000  -0.00000   0.00000  -0.00000  -0.00021  -0.00000
 427  O 3   d 4      0.00000   0.00000  -0.00000  -0.00000  -0.00001  -0.00000
 428  O 3   d 5      0.00000   0.00000   0.00000  -0.00000   0.00006  -0.00000
 429  O 3   d 1     -0.00000   0.00001  -0.00000  -0.00000   0.00008  -0.00001
 430  O 3   d 2     -0.00000  -0.00001   0.00001  -0.00000  -0.00022   0.00000
 431  O 3   d 3      0.00000   0.00001  -0.00001   0.00000   0.00035  -0.00002
 432  O 3   d 4     -0.00000  -0.00001   0.00000   0.00000   0.00001  -0.00000
 433  O 3   d 5     -0.00000   0.00000  -0.00000  -0.00000  -0.00006  -0.00001
 434  O 3   d 1     -0.00001   0.00006   0.00000   0.00002   0.00086   0.00007
 435  O 3   d 2      0.00001  -0.00003  -0.00004  -0.00002  -0.00127   0.00006
 436  O 3   d 3     -0.00001  -0.00006   0.00004   0.00001   0.00210  -0.00001
 437  O 3   d 4     -0.00001   0.00007  -0.00002   0.00001   0.00025   0.00001
 438  O 3   d 5      0.00000  -0.00001   0.00001   0.00002  -0.00055   0.00002
 439  O 3   d 1      0.00002   0.00026   0.00000   0.00001   0.00004   0.00018
 440  O 3   d 2      0.00002   0.00007  -0.00004   0.00003   0.00047   0.00023
 441  O 3   d 3     -0.00001  -0.00001   0.00012   0.00002  -0.00069  -0.00007
 442  O 3   d 4     -0.00002   0.00012  -0.00006   0.00001   0.00008  -0.00008
 443  O 3   d 5      0.00001  -0.00016   0.00007   0.00002  -0.00014   0.00009
 444  O 3   f 1      0.00000  -0.00000  -0.00000   0.00000  -0.00003  -0.00000
 445  O 3   f 2     -0.00000   0.00000   0.00000   0.00000   0.00003   0.00000
 446  O 3   f 3      0.00000  -0.00000   0.00000  -0.00000   0.00005   0.00000
 447  O 3   f 4     -0.00000   0.00000   0.00000   0.00000   0.00006   0.00000
 448  O 3   f 5      0.00000   0.00000  -0.00000   0.00000   0.00005  -0.00000
 449  O 3   f 6      0.00000  -0.00000   0.00000   0.00000   0.00002   0.00000
 450  O 3   f 7      0.00000   0.00000  -0.00000  -0.00000  -0.00014  -0.00000
 451  O 3   f 1     -0.00000   0.00001  -0.00000  -0.00000   0.00020   0.00000
 452  O 3   f 2      0.00000  -0.00002  -0.00000  -0.00000  -0.00029  -0.00000
 453  O 3   f 3      0.00000   0.00002  -0.00000   0.00000  -0.00036  -0.00000
 454  O 3   f 4      0.00000  -0.00001  -0.00000  -0.00001  -0.00046   0.00000
 455  O 3   f 5      0.00000  -0.00001  -0.00000  -0.00000  -0.00036   0.00001
 456  O 3   f 6     -0.00000  -0.00000  -0.00000  -0.00001  -0.00019   0.00000
 457  O 3   f 7     -0.00000  -0.00002   0.00001   0.00001   0.00109  -0.00000
 458  O 3   f 1      0.00000   0.00006  -0.00003   0.00000  -0.00000  -0.00002
 459  O 3   f 2      0.00000  -0.00007   0.00002  -0.00000   0.00004   0.00003
 460  O 3   f 3     -0.00000   0.00004  -0.00003  -0.00001   0.00021  -0.00002
 461  O 3   f 4     -0.00000   0.00004  -0.00002   0.00001   0.00026   0.00005
 462  O 3   f 5      0.00001  -0.00001  -0.00002   0.00000   0.00018   0.00006
 463  O 3   f 6      0.00001   0.00004   0.00000   0.00001   0.00014   0.00008
 464  O 3   f 7     -0.00000   0.00008   0.00003  -0.00001  -0.00039  -0.00002
 465  O 3   g 1      0.00000   0.00000   0.00000  -0.00000  -0.00013  -0.00000
 466  O 3   g 2      0.00000   0.00000   0.00000   0.00000   0.00001   0.00000
 467  O 3   g 3      0.00000  -0.00000  -0.00000  -0.00000   0.00001   0.00000
 468  O 3   g 4     -0.00000   0.00000  -0.00000   0.00000   0.00007   0.00000
 469  O 3   g 5      0.00000   0.00000   0.00000   0.00000  -0.00005   0.00000
 470  O 3   g 6     -0.00000   0.00000  -0.00000  -0.00000  -0.00000  -0.00000
 471  O 3   g 7      0.00000  -0.00000   0.00000   0.00000   0.00004   0.00000
 472  O 3   g 8      0.00000   0.00000  -0.00000  -0.00000  -0.00008  -0.00000
 473  O 3   g 9     -0.00000  -0.00000   0.00000  -0.00000  -0.00004   0.00000
 474  O 3   g 1     -0.00000  -0.00000  -0.00001  -0.00000  -0.00002   0.00001
 475  O 3   g 2     -0.00000  -0.00002   0.00000   0.00000  -0.00000  -0.00001
 476  O 3   g 3     -0.00000   0.00001   0.00000   0.00000  -0.00001  -0.00001
 477  O 3   g 4     -0.00000  -0.00002   0.00000  -0.00000  -0.00002  -0.00001
 478  O 3   g 5     -0.00000   0.00001  -0.00001   0.00000  -0.00001  -0.00000
 479  O 3   g 6      0.00000  -0.00001   0.00000   0.00000  -0.00001  -0.00000
 480  O 3   g 7     -0.00000   0.00001  -0.00000  -0.00000   0.00001  -0.00001
 481  O 3   g 8     -0.00000  -0.00001  -0.00000  -0.00000  -0.00002   0.00001
 482  O 3   g 9      0.00000   0.00001  -0.00001   0.00000  -0.00000   0.00001
 483  O 3   h 1      0.00000   0.00000   0.00000   0.00000   0.00002  -0.00000
 484  O 3   h 2      0.00000  -0.00000   0.00000   0.00000   0.00004  -0.00000
 485  O 3   h 3      0.00000  -0.00000  -0.00000  -0.00000  -0.00002   0.00000
 486  O 3   h 4     -0.00000  -0.00000  -0.00000  -0.00000   0.00002   0.00000
 487  O 3   h 5      0.00000  -0.00000   0.00000  -0.00000   0.00000   0.00000
 488  O 3   h 6      0.00000  -0.00000   0.00000  -0.00000   0.00003  -0.00000
 489  O 3   h 7     -0.00000   0.00000   0.00000   0.00000   0.00003  -0.00000
 490  O 3   h 8     -0.00000  -0.00000  -0.00000  -0.00000   0.00001  -0.00000
 491  O 3   h 9     -0.00000   0.00000  -0.00000   0.00000  -0.00003  -0.00000
 492  O 3   h10      0.00000  -0.00000   0.00000   0.00000   0.00000  -0.00000
 493  O 3   h11     -0.00000   0.00000  -0.00000  -0.00000  -0.00001   0.00000
 494  H 5   s       -0.00000  -0.00002  -0.00000   0.00000  -0.00015   0.00030
 495  H 5   s        0.00002   0.00008  -0.00001  -0.00005  -0.00178   0.00051
 496  H 5   s       -0.00008   0.00020   0.00037   0.00021   0.00851   0.00137
 497  H 5   s       -0.00006  -0.00059   0.00065   0.00013   0.00097   0.00110
 498  H 5   s        0.00002   0.00011  -0.00002  -0.00009  -0.00021   0.00048
 499  H 5   px       0.00000  -0.00000  -0.00000   0.00000   0.00009  -0.00000
 500  H 5   py      -0.00000   0.00003  -0.00000  -0.00000  -0.00015   0.00000
 501  H 5   pz      -0.00000   0.00001   0.00000   0.00000  -0.00006  -0.00000
 502  H 5   px      -0.00000  -0.00000   0.00001  -0.00001  -0.00004  -0.00003
 503  H 5   py       0.00000  -0.00013   0.00001   0.00000  -0.00015  -0.00002
 504  H 5   pz       0.00000  -0.00003  -0.00000  -0.00001  -0.00005   0.00001
 505  H 5   px       0.00003   0.00015  -0.00013  -0.00001  -0.00260   0.00002
 506  H 5   py      -0.00003   0.00030   0.00010   0.00009   0.00675  -0.00005
 507  H 5   pz      -0.00001  -0.00000   0.00008   0.00006   0.00237   0.00009
 508  H 5   px       0.00003   0.00031  -0.00024  -0.00013  -0.00054  -0.00045
 509  H 5   py      -0.00004   0.00093   0.00017   0.00025   0.00149   0.00058
 510  H 5   pz       0.00002   0.00025   0.00015   0.00010   0.00049   0.00070
 511  H 5   d 1      0.00000   0.00000   0.00000   0.00001   0.00016  -0.00001
 512  H 5   d 2      0.00000   0.00000  -0.00000   0.00000  -0.00012  -0.00001
 513  H 5   d 3     -0.00000   0.00001  -0.00000   0.00000   0.00007   0.00000
 514  H 5   d 4      0.00000  -0.00000   0.00000  -0.00000   0.00006  -0.00001
 515  H 5   d 5     -0.00000   0.00002  -0.00000   0.00000   0.00014   0.00000
 516  H 5   d 1      0.00000   0.00002  -0.00003  -0.00004  -0.00148   0.00001
 517  H 5   d 2     -0.00000  -0.00001   0.00002  -0.00000   0.00119   0.00007
 518  H 5   d 3      0.00000  -0.00007  -0.00000  -0.00002  -0.00082  -0.00003
 519  H 5   d 4     -0.00000   0.00002  -0.00001   0.00001  -0.00053   0.00001
 520  H 5   d 5      0.00001  -0.00011  -0.00000  -0.00001  -0.00130  -0.00007
 521  H 5   d 1      0.00003   0.00001  -0.00004   0.00001  -0.00167  -0.00009
 522  H 5   d 2     -0.00001  -0.00008   0.00002   0.00007   0.00149   0.00022
 523  H 5   d 3      0.00001   0.00019  -0.00001   0.00000  -0.00120  -0.00002
 524  H 5   d 4      0.00000   0.00002  -0.00005  -0.00004  -0.00057  -0.00015
 525  H 5   d 5     -0.00001   0.00009   0.00005  -0.00005  -0.00199  -0.00014
 526  H 5   f 1     -0.00000   0.00001   0.00000   0.00000  -0.00007   0.00000
 527  H 5   f 2      0.00000   0.00001  -0.00000  -0.00000  -0.00011   0.00000
 528  H 5   f 3      0.00000   0.00001   0.00000  -0.00000  -0.00009   0.00000
 529  H 5   f 4      0.00000   0.00000  -0.00000  -0.00000  -0.00012   0.00000
 530  H 5   f 5      0.00000   0.00000   0.00000   0.00000   0.00002   0.00000
 531  H 5   f 6      0.00000   0.00000  -0.00000  -0.00000  -0.00011   0.00000
 532  H 5   f 7     -0.00000  -0.00001   0.00000  -0.00000   0.00018   0.00000
 533  H 5   f 1      0.00000  -0.00014   0.00002  -0.00001  -0.00032  -0.00001
 534  H 5   f 2     -0.00000   0.00000  -0.00001  -0.00001  -0.00062  -0.00004
 535  H 5   f 3      0.00000  -0.00008   0.00000  -0.00001  -0.00041   0.00002
 536  H 5   f 4      0.00000  -0.00001  -0.00001  -0.00001  -0.00061  -0.00004
 537  H 5   f 5     -0.00000  -0.00001  -0.00000   0.00000   0.00019  -0.00001
 538  H 5   f 6      0.00000  -0.00003   0.00001   0.00000  -0.00058  -0.00004
 539  H 5   f 7     -0.00000   0.00005   0.00000   0.00003   0.00102   0.00000
 540  H 5   g 1     -0.00000   0.00001  -0.00000   0.00000   0.00014   0.00000
 541  H 5   g 2      0.00000   0.00000   0.00000   0.00000  -0.00005  -0.00000
 542  H 5   g 3     -0.00000   0.00000  -0.00000   0.00000   0.00002  -0.00000
 543  H 5   g 4      0.00000   0.00000   0.00000  -0.00000  -0.00013  -0.00000
 544  H 5   g 5     -0.00000   0.00000  -0.00000   0.00000   0.00001  -0.00000
 545  H 5   g 6     -0.00000  -0.00000   0.00000   0.00000   0.00005   0.00000
 546  H 5   g 7      0.00000   0.00000  -0.00000   0.00000   0.00003  -0.00000
 547  H 5   g 8     -0.00000  -0.00000   0.00000   0.00000   0.00012   0.00000
 548  H 5   g 9     -0.00000  -0.00000  -0.00000  -0.00000  -0.00002   0.00000
 549  H 6   s        0.00000  -0.00000  -0.00000   0.00000  -0.00014   0.00012
 550  H 6   s        0.00000   0.00008  -0.00002  -0.00001  -0.00158   0.00027
 551  H 6   s       -0.00006  -0.00039   0.00039  -0.00001   0.00726   0.00000
 552  H 6   s       -0.00014   0.00039  -0.00009   0.00009   0.00075  -0.00099
 553  H 6   s        0.00000  -0.00010  -0.00003  -0.00000   0.00028  -0.00009
 554  H 6   px      -0.00000  -0.00000  -0.00000   0.00000  -0.00017   0.00001
 555  H 6   py      -0.00000   0.00000  -0.00001  -0.00000  -0.00003   0.00000
 556  H 6   pz       0.00000   0.00000   0.00001   0.00000  -0.00001   0.00000
 557  H 6   px       0.00000   0.00003   0.00001  -0.00000  -0.00013   0.00003
 558  H 6   py       0.00000  -0.00002   0.00002   0.00000  -0.00008  -0.00001
 559  H 6   pz      -0.00000  -0.00001  -0.00002  -0.00001  -0.00003  -0.00001
 560  H 6   px      -0.00003  -0.00022   0.00013   0.00002   0.00618  -0.00008
 561  H 6   py      -0.00002   0.00010  -0.00003  -0.00001   0.00156   0.00000
 562  H 6   pz      -0.00001   0.00005   0.00003   0.00002   0.00070  -0.00001
 563  H 6   px      -0.00005   0.00015  -0.00006   0.00004   0.00165  -0.00043
 564  H 6   py       0.00001  -0.00010   0.00011  -0.00001   0.00045   0.00011
 565  H 6   pz      -0.00003   0.00001  -0.00012  -0.00001   0.00018  -0.00009
 566  H 6   d 1      0.00000  -0.00001   0.00000  -0.00000  -0.00012   0.00000
 567  H 6   d 2      0.00000   0.00000   0.00001   0.00000  -0.00000  -0.00000
 568  H 6   d 3     -0.00000  -0.00001   0.00000  -0.00000   0.00012  -0.00000
 569  H 6   d 4      0.00000  -0.00000  -0.00000   0.00000  -0.00005   0.00000
 570  H 6   d 5     -0.00000   0.00000  -0.00000  -0.00000  -0.00020   0.00000
 571  H 6   d 1     -0.00000   0.00003  -0.00000  -0.00000   0.00091  -0.00001
 572  H 6   d 2     -0.00000  -0.00002  -0.00002  -0.00001   0.00007   0.00000
 573  H 6   d 3      0.00000   0.00005  -0.00002   0.00000  -0.00108  -0.00000
 574  H 6   d 4     -0.00000   0.00001   0.00001  -0.00000   0.00040  -0.00001
 575  H 6   d 5      0.00000  -0.00001   0.00003   0.00001   0.00175  -0.00001
 576  H 6   d 1     -0.00001  -0.00005   0.00004  -0.00001   0.00098   0.00008
 577  H 6   d 2     -0.00000   0.00004   0.00002   0.00001   0.00009  -0.00003
 578  H 6   d 3     -0.00000  -0.00003   0.00000  -0.00002  -0.00125   0.00002
 579  H 6   d 4     -0.00001   0.00002  -0.00004   0.00001   0.00044  -0.00002
 580  H 6   d 5     -0.00001  -0.00007  -0.00002   0.00002   0.00203  -0.00001
 581  H 6   f 1     -0.00000   0.00000  -0.00000   0.00000   0.00014  -0.00000
 582  H 6   f 2      0.00000  -0.00000   0.00000  -0.00000   0.00002   0.00000
 583  H 6   f 3     -0.00000  -0.00000   0.00000  -0.00000  -0.00004   0.00000
 584  H 6   f 4      0.00000  -0.00000  -0.00000  -0.00000  -0.00005   0.00000
 585  H 6   f 5      0.00000   0.00000  -0.00000   0.00000  -0.00015   0.00000
 586  H 6   f 6      0.00000  -0.00000   0.00000  -0.00000   0.00004  -0.00000
 587  H 6   f 7      0.00000   0.00000   0.00000  -0.00000   0.00016  -0.00000
 588  H 6   f 1     -0.00000  -0.00001   0.00001  -0.00000   0.00069   0.00002
 589  H 6   f 2     -0.00000   0.00001  -0.00000  -0.00000   0.00012  -0.00001
 590  H 6   f 3      0.00000   0.00001  -0.00000   0.00000  -0.00018  -0.00001
 591  H 6   f 4      0.00000   0.00000   0.00001   0.00000  -0.00020   0.00000
 592  H 6   f 5     -0.00000   0.00001  -0.00000  -0.00001  -0.00080  -0.00000
 593  H 6   f 6     -0.00000   0.00001  -0.00001   0.00000   0.00024  -0.00000
 594  H 6   f 7      0.00000  -0.00002  -0.00000   0.00001   0.00085   0.00001
 595  H 6   g 1     -0.00000  -0.00000   0.00000  -0.00000   0.00014   0.00000
 596  H 6   g 2     -0.00000  -0.00000   0.00000  -0.00000   0.00003   0.00000
 597  H 6   g 3      0.00000   0.00000  -0.00000  -0.00000  -0.00006  -0.00000
 598  H 6   g 4      0.00000  -0.00000   0.00000  -0.00000  -0.00002  -0.00000
 599  H 6   g 5      0.00000  -0.00000   0.00000   0.00000   0.00008  -0.00000
 600  H 6   g 6      0.00000  -0.00000   0.00000  -0.00000  -0.00006  -0.00000
 601  H 6   g 7     -0.00000   0.00000  -0.00000  -0.00000  -0.00011  -0.00000
 602  H 6   g 8     -0.00000   0.00000  -0.00000   0.00000   0.00003  -0.00000
 603  H 6   g 9      0.00000   0.00000   0.00000   0.00000   0.00010  -0.00000
 604  O 4   s       -0.00002  -0.00001   0.97855   0.00000   0.00000  -0.00056
 605  O 4   s       -0.00002  -0.00001   0.03103   0.00001  -0.00000   0.00802
 606  O 4   s       -0.00004  -0.00002   0.08526   0.00001  -0.00000   0.00020
 607  O 4   s        0.00003   0.00002  -0.01577  -0.00003   0.00002   0.00929
 608  O 4   s        0.00122   0.00034  -0.01890  -0.00006   0.00020   0.01197
 609  O 4   s        0.00057  -0.00003  -0.00449  -0.00038   0.00028   0.00295
 610  O 4   px       0.00000   0.00000   0.00027   0.00000   0.00000   0.00052
 611  O 4   py       0.00000  -0.00000  -0.00071  -0.00000   0.00000  -0.00061
 612  O 4   pz      -0.00000  -0.00000   0.00095  -0.00000  -0.00000   0.00041
 613  O 4   px      -0.00003  -0.00003   0.00026  -0.00000  -0.00001   0.00084
 614  O 4   py       0.00000   0.00001  -0.00040   0.00000  -0.00000  -0.00097
 615  O 4   pz      -0.00000   0.00001   0.00048   0.00001   0.00001   0.00074
 616  O 4   px       0.00040   0.00024  -0.00372   0.00001   0.00010   0.00149
 617  O 4   py      -0.00017  -0.00010   0.00586  -0.00000  -0.00002  -0.00168
 618  O 4   pz       0.00006  -0.00006  -0.00687  -0.00004  -0.00004   0.00089
 619  O 4   px       0.00042   0.00057  -0.00070   0.00031   0.00043  -0.00009
 620  O 4   py      -0.00034  -0.00004   0.00084  -0.00007  -0.00008  -0.00088
 621  O 4   pz       0.00000  -0.00022  -0.00171  -0.00028  -0.00018   0.00025
 622  O 4   px       0.00021   0.00010   0.00053   0.00018   0.00014   0.00026
 623  O 4   py       0.00009  -0.00000   0.00021   0.00004  -0.00002  -0.00015
 624  O 4   pz      -0.00007  -0.00005  -0.00073  -0.00019  -0.00006  -0.00040
 625  O 4   d 1     -0.00000   0.00000  -0.00013  -0.00000   0.00000  -0.00001
 626  O 4   d 2      0.00000  -0.00000  -0.00012  -0.00000   0.00000  -0.00000
 627  O 4   d 3     -0.00000   0.00000  -0.00002  -0.00000  -0.00000  -0.00000
 628  O 4   d 4     -0.00000  -0.00000  -0.00014   0.00000  -0.00000  -0.00000
 629  O 4   d 5     -0.00001   0.00000   0.00019  -0.00000  -0.00000   0.00000
 630  O 4   d 1      0.00000  -0.00000   0.00025   0.00000  -0.00001  -0.00006
 631  O 4   d 2     -0.00000   0.00000   0.00024   0.00000  -0.00000  -0.00006
 632  O 4   d 3      0.00000   0.00000   0.00003   0.00000  -0.00000  -0.00003
 633  O 4   d 4      0.00001   0.00000   0.00022   0.00000   0.00000   0.00001
 634  O 4   d 5      0.00002  -0.00000  -0.00032   0.00000   0.00000   0.00008
 635  O 4   d 1     -0.00014  -0.00008   0.00166  -0.00002  -0.00000  -0.00035
 636  O 4   d 2     -0.00000   0.00001   0.00102   0.00000   0.00000   0.00000
 637  O 4   d 3     -0.00010  -0.00008   0.00076  -0.00001  -0.00001  -0.00011
 638  O 4   d 4      0.00004   0.00003   0.00160   0.00000  -0.00000  -0.00024
 639  O 4   d 5      0.00007   0.00004  -0.00265  -0.00002   0.00000   0.00009
 640  O 4   d 1     -0.00004  -0.00010  -0.00042  -0.00008  -0.00001   0.00010
 641  O 4   d 2      0.00002   0.00006  -0.00011   0.00006   0.00002   0.00005
 642  O 4   d 3     -0.00002  -0.00010  -0.00018  -0.00008  -0.00001   0.00022
 643  O 4   d 4      0.00003   0.00009  -0.00031   0.00003  -0.00001  -0.00074
 644  O 4   d 5     -0.00001   0.00008   0.00017  -0.00002   0.00001  -0.00012
 645  O 4   f 1      0.00000   0.00000  -0.00012   0.00000   0.00000  -0.00000
 646  O 4   f 2      0.00000  -0.00000   0.00002  -0.00000  -0.00000  -0.00000
 647  O 4   f 3     -0.00000  -0.00000   0.00001   0.00000   0.00000  -0.00000
 648  O 4   f 4      0.00000  -0.00000  -0.00003  -0.00000  -0.00000  -0.00001
 649  O 4   f 5     -0.00000   0.00000  -0.00014   0.00000   0.00000  -0.00000
 650  O 4   f 6     -0.00000   0.00000   0.00007   0.00000   0.00000   0.00000
 651  O 4   f 7     -0.00000   0.00000   0.00000   0.00000  -0.00000   0.00000
 652  O 4   f 1     -0.00002  -0.00001   0.00097  -0.00000  -0.00000  -0.00006
 653  O 4   f 2     -0.00001  -0.00000  -0.00014   0.00000   0.00000   0.00002
 654  O 4   f 3      0.00001   0.00001  -0.00005  -0.00000  -0.00000   0.00003
 655  O 4   f 4     -0.00001   0.00000   0.00025   0.00000   0.00000   0.00002
 656  O 4   f 5     -0.00001  -0.00001   0.00114  -0.00000  -0.00000  -0.00007
 657  O 4   f 6      0.00001  -0.00001  -0.00057  -0.00000  -0.00001   0.00001
 658  O 4   f 7      0.00001  -0.00001  -0.00002  -0.00000   0.00000  -0.00003
 659  O 4   f 1      0.00003  -0.00003  -0.00036  -0.00001   0.00001   0.00001
 660  O 4   f 2     -0.00001  -0.00000   0.00010   0.00001   0.00003   0.00013
 661  O 4   f 3      0.00001   0.00002  -0.00001   0.00002  -0.00001  -0.00003
 662  O 4   f 4     -0.00001   0.00001  -0.00004   0.00002   0.00004   0.00013
 663  O 4   f 5      0.00001   0.00000  -0.00041   0.00000   0.00000  -0.00011
 664  O 4   f 6      0.00001  -0.00002   0.00015  -0.00002  -0.00005  -0.00008
 665  O 4   f 7     -0.00001   0.00002  -0.00009  -0.00001   0.00003  -0.00003
 666  O 4   g 1     -0.00000  -0.00000   0.00007   0.00000  -0.00000  -0.00000
 667  O 4   g 2     -0.00000  -0.00000   0.00008   0.00000  -0.00000  -0.00000
 668  O 4   g 3      0.00000   0.00000  -0.00011  -0.00000   0.00000   0.00001
 669  O 4   g 4      0.00000   0.00000  -0.00000  -0.00000   0.00000   0.00000
 670  O 4   g 5      0.00000   0.00000  -0.00000  -0.00000   0.00000   0.00000
 671  O 4   g 6     -0.00000  -0.00000   0.00008  -0.00000  -0.00000  -0.00000
 672  O 4   g 7     -0.00000  -0.00000  -0.00003  -0.00000   0.00000   0.00000
 673  O 4   g 8     -0.00000   0.00000   0.00002  -0.00000   0.00000   0.00000
 674  O 4   g 9     -0.00000  -0.00000   0.00003   0.00000   0.00000  -0.00001
 675  O 4   g 1      0.00001  -0.00000   0.00007  -0.00000   0.00000  -0.00000
 676  O 4   g 2      0.00000   0.00001  -0.00001   0.00000   0.00001   0.00002
 677  O 4   g 3     -0.00001   0.00000  -0.00002   0.00000   0.00000   0.00002
 678  O 4   g 4      0.00000  -0.00000  -0.00001  -0.00000  -0.00001  -0.00002
 679  O 4   g 5     -0.00000   0.00001  -0.00000   0.00000   0.00000   0.00001
 680  O 4   g 6      0.00000   0.00001  -0.00004   0.00000   0.00000   0.00001
 681  O 4   g 7      0.00000  -0.00001   0.00001  -0.00000  -0.00001   0.00000
 682  O 4   g 8      0.00000  -0.00000   0.00007   0.00000   0.00000  -0.00001
 683  O 4   g 9      0.00002  -0.00000  -0.00006  -0.00000  -0.00000   0.00000
 684  O 4   h 1     -0.00000  -0.00000   0.00006   0.00000   0.00000   0.00000
 685  O 4   h 2     -0.00000   0.00000  -0.00000   0.00000   0.00000   0.00001
 686  O 4   h 3     -0.00000   0.00000  -0.00000   0.00000   0.00000   0.00000
 687  O 4   h 4     -0.00000  -0.00000  -0.00004  -0.00000  -0.00000  -0.00000
 688  O 4   h 5      0.00000  -0.00000   0.00001  -0.00000  -0.00000  -0.00000
 689  O 4   h 6      0.00000  -0.00000   0.00001  -0.00000  -0.00000  -0.00000
 690  O 4   h 7     -0.00000   0.00000  -0.00004   0.00000  -0.00000   0.00000
 691  O 4   h 8     -0.00000  -0.00000  -0.00002   0.00000  -0.00000   0.00001
 692  O 4   h 9     -0.00000  -0.00000   0.00004   0.00000   0.00000  -0.00000
 693  O 4   h10      0.00000   0.00000  -0.00000  -0.00000  -0.00000  -0.00000
 694  O 4   h11      0.00000  -0.00000   0.00004  -0.00000   0.00000  -0.00000
 695  H 7   s       -0.00000   0.00000  -0.00029   0.00000  -0.00000   0.00120
 696  H 7   s        0.00019   0.00005  -0.00138  -0.00002   0.00005   0.00255
 697  H 7   s       -0.00107  -0.00070   0.01325  -0.00006  -0.00020   0.00496
 698  H 7   s       -0.00095  -0.00036   0.00228  -0.00040  -0.00069   0.00132
 699  H 7   s       -0.00030   0.00001  -0.00016   0.00001   0.00001   0.00114
 700  H 7   px       0.00000  -0.00000   0.00022   0.00000   0.00000  -0.00002
 701  H 7   py      -0.00000   0.00000  -0.00012  -0.00000  -0.00000  -0.00001
 702  H 7   pz      -0.00000  -0.00000   0.00004  -0.00000  -0.00000  -0.00002
 703  H 7   px      -0.00005   0.00000  -0.00044  -0.00001  -0.00002  -0.00030
 704  H 7   py       0.00002  -0.00000   0.00022   0.00001   0.00001   0.00013
 705  H 7   pz       0.00000   0.00000  -0.00007   0.00000   0.00000  -0.00005
 706  H 7   px       0.00052   0.00029  -0.00874   0.00004   0.00010   0.00024
 707  H 7   py      -0.00029  -0.00016   0.00491  -0.00000  -0.00008  -0.00038
 708  H 7   pz       0.00006   0.00011  -0.00171   0.00004   0.00008   0.00011
 709  H 7   px       0.00092   0.00015  -0.00288   0.00011   0.00024   0.00070
 710  H 7   py      -0.00033  -0.00018   0.00169   0.00001  -0.00020  -0.00029
 711  H 7   pz       0.00006   0.00010  -0.00008   0.00016   0.00022   0.00026
 712  H 7   d 1     -0.00002   0.00000   0.00009   0.00000   0.00000  -0.00001
 713  H 7   d 2      0.00000  -0.00000   0.00003  -0.00000   0.00000  -0.00001
 714  H 7   d 3     -0.00000  -0.00000   0.00005  -0.00000  -0.00000  -0.00001
 715  H 7   d 4      0.00000   0.00001  -0.00005   0.00000   0.00000   0.00002
 716  H 7   d 5     -0.00000   0.00000  -0.00006  -0.00000   0.00000   0.00001
 717  H 7   d 1      0.00014   0.00002  -0.00213  -0.00001   0.00000  -0.00014
 718  H 7   d 2     -0.00001   0.00003  -0.00051   0.00001  -0.00000   0.00008
 719  H 7   d 3      0.00006   0.00003  -0.00133  -0.00000   0.00000  -0.00008
 720  H 7   d 4     -0.00001  -0.00005   0.00086  -0.00001  -0.00002  -0.00012
 721  H 7   d 5     -0.00001  -0.00004   0.00138  -0.00000  -0.00001   0.00005
 722  H 7   d 1      0.00007   0.00013  -0.00283  -0.00001   0.00010  -0.00035
 723  H 7   d 2      0.00007   0.00002  -0.00044   0.00001   0.00008   0.00036
 724  H 7   d 3      0.00015   0.00003  -0.00184  -0.00002   0.00001  -0.00016
 725  H 7   d 4     -0.00010  -0.00003   0.00074  -0.00006  -0.00010  -0.00041
 726  H 7   d 5     -0.00028  -0.00002   0.00170  -0.00003   0.00001  -0.00045
 727  H 7   f 1     -0.00001  -0.00000   0.00025   0.00000   0.00000   0.00001
 728  H 7   f 2     -0.00000  -0.00000   0.00010   0.00000   0.00000   0.00000
 729  H 7   f 3      0.00000  -0.00000  -0.00008  -0.00000   0.00000  -0.00001
 730  H 7   f 4     -0.00000  -0.00000   0.00009  -0.00000   0.00000  -0.00000
 731  H 7   f 5     -0.00000  -0.00000   0.00014   0.00000   0.00000   0.00001
 732  H 7   f 6     -0.00000   0.00000  -0.00007  -0.00000   0.00000   0.00000
 733  H 7   f 7     -0.00000   0.00000  -0.00001  -0.00000   0.00000  -0.00001
[...]
 784  H 8   f 3     -0.00002  -0.00009  -0.00012  -0.00000   0.00043   0.00031
 785  H 8   f 4      0.00000   0.00002  -0.00010  -0.00005   0.00033   0.00033
 786  H 8   f 5     -0.00004  -0.00012  -0.00018  -0.00001   0.00080   0.00042
 787  H 8   f 6      0.00001   0.00009   0.00025   0.00014  -0.00088  -0.00060
 788  H 8   f 7      0.00000  -0.00001  -0.00010  -0.00011   0.00045   0.00039
 789  H 8   f 1      0.00004   0.00013  -0.00038   0.00075  -0.00109   0.00228
 790  H 8   f 2      0.00003   0.00001  -0.00038  -0.00257   0.00475  -0.00205
 791  H 8   f 3     -0.00004   0.00009   0.00069   0.00233  -0.00580  -0.00090
 792  H 8   f 4      0.00008  -0.00040  -0.00024   0.00095   0.00044   0.00162
 793  H 8   f 5     -0.00038  -0.00102  -0.00083   0.00205  -0.00655   0.00362
 794  H 8   f 6      0.00031   0.00087   0.00107  -0.00095   0.00235  -0.00411
 795  H 8   f 7     -0.00013  -0.00036  -0.00048  -0.00012  -0.00035   0.00079
 796  H 8   g 1      0.00000   0.00000  -0.00004   0.00003   0.00001   0.00016
 797  H 8   g 2      0.00000   0.00002   0.00003  -0.00018   0.00021  -0.00021
 798  H 8   g 3     -0.00001  -0.00004   0.00001   0.00025  -0.00039   0.00012
 799  H 8   g 4      0.00002   0.00002  -0.00001  -0.00003   0.00014  -0.00001
 800  H 8   g 5      0.00001   0.00005   0.00007  -0.00011   0.00004  -0.00032
 801  H 8   g 6      0.00002   0.00004   0.00001  -0.00001   0.00027  -0.00001
 802  H 8   g 7     -0.00002  -0.00010  -0.00013   0.00004  -0.00008   0.00033
 803  H 8   g 8      0.00002   0.00005   0.00010   0.00007  -0.00012  -0.00027
 804  H 8   g 9     -0.00001  -0.00002  -0.00004  -0.00006   0.00009   0.00007
 805  O 5   s        0.00001  -0.00088  -0.00056   0.00004   0.00012   0.00004
 806  O 5   s        0.00159   0.08891   0.02753  -0.02211  -0.01036   0.01541
 807  O 5   s        0.00029   0.00402   0.00073  -0.00196  -0.00089   0.00126
 808  O 5   s       -0.00016   0.11589   0.04966  -0.03270   0.00262   0.01413
 809  O 5   s        0.00381   0.00402  -0.14506   0.12155  -0.12134   0.01107
 810  O 5   s        0.02565  -0.49039  -0.65159   0.00733  -0.67903  -0.03615
 811  O 5   px      -0.00048   0.01977  -0.01430  -0.04448   0.00219   0.00142
 812  O 5   py       0.00064  -0.02928  -0.02982   0.00264  -0.01819  -0.00517
 813  O 5   pz       0.00067  -0.00546   0.00888  -0.01798  -0.01299   0.00264
 814  O 5   px      -0.00059   0.03412  -0.01734  -0.06861   0.00175  -0.00107
 815  O 5   py       0.00132  -0.04901  -0.04857   0.00737  -0.03208  -0.00907
 816  O 5   pz       0.00115  -0.00947   0.01499  -0.02716  -0.02243   0.00229
 817  O 5   px      -0.00333   0.03777  -0.07789  -0.14385   0.01577   0.02766
 818  O 5   py       0.00129  -0.05570  -0.06559  -0.02931  -0.03171  -0.00275
 819  O 5   pz       0.00114  -0.01106   0.01993  -0.06192  -0.02843   0.01808
 820  O 5   px      -0.00571  -0.06120  -0.25029  -0.23010   0.15483   0.09377
 821  O 5   py      -0.01314   0.06280  -0.00763  -0.12312   0.10523   0.02391
 822  O 5   pz       0.00426  -0.01967   0.04827  -0.09209   0.04160   0.07580
 823  O 5   px      -0.00876  -0.07112  -0.43342  -0.57939   0.08624  -0.01274
 824  O 5   py       0.00169  -0.02596   0.10485  -0.15279   0.11013   0.04271
 825  O 5   pz      -0.00219   0.24022   0.03070  -0.22296   0.22179   0.09721
 826  O 5   d 1      0.00000  -0.00005  -0.00011  -0.00026  -0.00017   0.00005
 827  O 5   d 2     -0.00000  -0.00005  -0.00015  -0.00013  -0.00010  -0.00006
 828  O 5   d 3     -0.00001   0.00026  -0.00003   0.00001   0.00027  -0.00001
 829  O 5   d 4      0.00001  -0.00018   0.00002   0.00000  -0.00016  -0.00004
 830  O 5   d 5      0.00000  -0.00002   0.00002   0.00022  -0.00001  -0.00000
 831  O 5   d 1      0.00002  -0.00128  -0.00049   0.00067   0.00005  -0.00038
 832  O 5   d 2     -0.00004   0.00014  -0.00037   0.00041   0.00105   0.00049
 833  O 5   d 3      0.00013  -0.00074   0.00039  -0.00058  -0.00214   0.00049
 834  O 5   d 4     -0.00007   0.00027  -0.00083   0.00037   0.00043  -0.00077
 835  O 5   d 5      0.00003  -0.00120  -0.00011   0.00112  -0.00003   0.00014
 836  O 5   d 1      0.00079   0.00391   0.01486   0.01556  -0.01281  -0.00902
 837  O 5   d 2     -0.00006  -0.00157  -0.00079   0.00771  -0.00681  -0.00630
 838  O 5   d 3     -0.00029   0.00824   0.00690  -0.00472   0.01050  -0.00058
 839  O 5   d 4      0.00040  -0.00584   0.00003   0.00122  -0.00614   0.00333
 840  O 5   d 5     -0.00084  -0.00146  -0.01874  -0.01693  -0.00076   0.00830
 841  O 5   d 1      0.00034   0.01839   0.04975   0.06541  -0.09350  -0.01718
 842  O 5   d 2     -0.00019  -0.00166  -0.02262   0.04155  -0.02025  -0.02254
 843  O 5   d 3     -0.00392  -0.00590   0.03170  -0.00039  -0.00283   0.00251
 844  O 5   d 4      0.00291  -0.01259   0.01375  -0.01022  -0.01893   0.02744
 845  O 5   d 5     -0.00239  -0.02830  -0.08553  -0.06437  -0.00765   0.00733
 846  O 5   f 1     -0.00000   0.00006  -0.00021  -0.00040  -0.00016   0.00003
 847  O 5   f 2      0.00001   0.00011   0.00003  -0.00003  -0.00008   0.00001
 848  O 5   f 3     -0.00000   0.00002   0.00017  -0.00009  -0.00002   0.00005
 849  O 5   f 4      0.00002   0.00009   0.00003   0.00003  -0.00001   0.00002
 850  O 5   f 5     -0.00001   0.00005  -0.00016   0.00007  -0.00008   0.00004
 851  O 5   f 6      0.00001  -0.00001  -0.00003  -0.00016  -0.00007  -0.00009
 852  O 5   f 7     -0.00001  -0.00021  -0.00016  -0.00012   0.00011  -0.00005
 853  O 5   f 1      0.00004   0.00014   0.00201   0.00219   0.00086  -0.00050
 854  O 5   f 2     -0.00006  -0.00034  -0.00020  -0.00068   0.00049   0.00018
 855  O 5   f 3      0.00003  -0.00009  -0.00057   0.00117   0.00015  -0.00039
 856  O 5   f 4     -0.00007  -0.00031   0.00034   0.00111   0.00003  -0.00067
 857  O 5   f 5      0.00014  -0.00021   0.00226   0.00069   0.00003  -0.00065
 858  O 5   f 6     -0.00003  -0.00002  -0.00018   0.00081   0.00040   0.00045
 859  O 5   f 7      0.00004   0.00070   0.00041   0.00170  -0.00084   0.00001
 860  O 5   f 1     -0.00072   0.00282   0.01224   0.02035   0.01136   0.00331
 861  O 5   f 2     -0.00049   0.00356  -0.00525   0.00318   0.00756  -0.00457
 862  O 5   f 3      0.00090   0.00277   0.00833  -0.00098  -0.00270   0.00171
 863  O 5   f 4     -0.00011   0.00425  -0.00580   0.00665  -0.00470  -0.00870
 864  O 5   f 5      0.00014   0.00076   0.01245   0.00835  -0.00554   0.00143
 865  O 5   f 6      0.00071  -0.00067   0.00789   0.00410  -0.00114   0.00719
 866  O 5   f 7      0.00032   0.00456  -0.00160   0.00323  -0.01285   0.00218
 867  O 5   g 1      0.00001  -0.00005   0.00004  -0.00010  -0.00008  -0.00002
 868  O 5   g 2      0.00001  -0.00003   0.00019   0.00013   0.00006   0.00007
 869  O 5   g 3     -0.00000   0.00000  -0.00005  -0.00002  -0.00005   0.00004
 870  O 5   g 4     -0.00001   0.00003  -0.00004  -0.00007  -0.00002   0.00003
 871  O 5   g 5     -0.00001  -0.00011  -0.00007   0.00008  -0.00008   0.00007
 872  O 5   g 6      0.00002   0.00004   0.00021  -0.00008  -0.00003   0.00012
 873  O 5   g 7     -0.00001  -0.00003  -0.00004   0.00003  -0.00010  -0.00012
 874  O 5   g 8     -0.00001   0.00001  -0.00019  -0.00022  -0.00004   0.00002
 875  O 5   g 9      0.00000  -0.00004  -0.00016  -0.00040  -0.00008   0.00000
 876  O 5   g 1     -0.00015  -0.00095  -0.00081   0.00068   0.00063  -0.00040
 877  O 5   g 2     -0.00013   0.00031  -0.00186  -0.00087  -0.00081  -0.00139
 878  O 5   g 3     -0.00004   0.00002  -0.00145  -0.00108   0.00078  -0.00029
 879  O 5   g 4      0.00002  -0.00086  -0.00026  -0.00089   0.00014   0.00028
 880  O 5   g 5      0.00010   0.00120   0.00013  -0.00088   0.00025  -0.00042
 881  O 5   g 6     -0.00015  -0.00051  -0.00192   0.00078   0.00067  -0.00146
 882  O 5   g 7      0.00011  -0.00039   0.00213   0.00117   0.00065   0.00068
 883  O 5   g 8      0.00003  -0.00049   0.00052   0.00025   0.00043   0.00073
 884  O 5   g 9     -0.00014   0.00054   0.00010   0.00316   0.00187   0.00088
 885  O 5   h 1      0.00000  -0.00013   0.00016   0.00008  -0.00015  -0.00007
 886  O 5   h 2     -0.00001   0.00013  -0.00002   0.00019   0.00009  -0.00010
 887  O 5   h 3      0.00001   0.00019  -0.00017  -0.00030  -0.00007  -0.00010
 888  O 5   h 4      0.00001   0.00011   0.00021  -0.00015  -0.00005   0.00009
 889  O 5   h 5     -0.00001  -0.00003  -0.00006   0.00004   0.00001   0.00002
 890  O 5   h 6      0.00000  -0.00012   0.00007  -0.00003  -0.00005   0.00008
 891  O 5   h 7     -0.00001   0.00022  -0.00019  -0.00020   0.00009  -0.00009
 892  O 5   h 8     -0.00002  -0.00014  -0.00027  -0.00010  -0.00001  -0.00014
 893  O 5   h 9     -0.00000  -0.00015  -0.00008   0.00005   0.00006  -0.00001
 894  O 5   h10      0.00000   0.00017   0.00001  -0.00013  -0.00012  -0.00001
 895  O 5   h11     -0.00002   0.00004  -0.00030  -0.00005  -0.00012  -0.00003
 896  H 9   s       -0.00012  -0.00602  -0.00438  -0.00160  -0.00123  -0.00225
 897  H 9   s        0.00005  -0.01752  -0.00409   0.01755  -0.00428  -0.01311
 898  H 9   s       -0.01442  -0.05822  -0.14992  -0.20939   0.14702   0.02967
 899  H 9   s       -0.01652   0.43872   0.36535  -0.57539   0.68270   0.23274
 900  H 9   s        0.00372  -0.53134  -0.95918  -0.75817  -0.29518  -0.13594
 901  H 9   px      -0.00002   0.00101   0.00096   0.00021   0.00017   0.00017
 902  H 9   py       0.00003   0.00182   0.00234   0.00078   0.00071   0.00035
 903  H 9   pz       0.00001   0.00076   0.00076   0.00034   0.00036   0.00024
 904  H 9   px       0.00005   0.00010  -0.00077   0.00199   0.00169  -0.00049
 905  H 9   py      -0.00011  -0.00253  -0.00476   0.00391  -0.00175  -0.00159
 906  H 9   pz       0.00005  -0.00171  -0.00049   0.00034  -0.00094  -0.00099
 907  H 9   px      -0.00271   0.01977  -0.00943  -0.05983   0.01138   0.00918
 908  H 9   py      -0.00344   0.03317   0.01759  -0.05217   0.07350   0.03041
 909  H 9   pz      -0.00165   0.01324  -0.00411  -0.01524   0.01964   0.00748
 910  H 9   px      -0.00248   0.08193   0.08250  -0.07658   0.05277   0.04692
 911  H 9   py      -0.00489   0.17357   0.07722  -0.19279   0.25805   0.11246
 912  H 9   pz      -0.00404  -0.02647  -0.01647  -0.02595   0.00553  -0.00935
 913  H 9   d 1      0.00001   0.00036   0.00073   0.00119   0.00038   0.00001
 914  H 9   d 2      0.00000  -0.00035   0.00020   0.00012  -0.00050  -0.00008
 915  H 9   d 3      0.00000  -0.00001   0.00023  -0.00019  -0.00006   0.00005
 916  H 9   d 4     -0.00001  -0.00027   0.00010   0.00067   0.00013  -0.00031
 917  H 9   d 5      0.00001  -0.00040   0.00014  -0.00008   0.00005   0.00017
 918  H 9   d 1     -0.00040  -0.00011  -0.00635  -0.01196   0.00127   0.00109
 919  H 9   d 2     -0.00023   0.00202  -0.00230  -0.00272   0.00405   0.00127
 920  H 9   d 3      0.00018  -0.00028   0.00075   0.00321  -0.00209  -0.00107
 921  H 9   d 4     -0.00007   0.00184  -0.00152  -0.00544   0.00013   0.00160
 922  H 9   d 5      0.00013   0.00269  -0.00049  -0.00145  -0.00348  -0.00216
 923  H 9   d 1      0.00012   0.03116   0.02116  -0.04039   0.00972   0.01594
 924  H 9   d 2     -0.00123  -0.00130  -0.00130  -0.01614   0.00188   0.00412
 925  H 9   d 3      0.00022  -0.01466  -0.01056   0.02050  -0.01275  -0.01293
 926  H 9   d 4     -0.00080  -0.00149  -0.00438  -0.00342  -0.00643  -0.00565
 927  H 9   d 5      0.00011  -0.02294  -0.00827   0.01442  -0.04413  -0.01802
 928  H 9   f 1     -0.00001   0.00012  -0.00040  -0.00045   0.00002  -0.00006
 929  H 9   f 2     -0.00002   0.00008  -0.00033  -0.00041   0.00027   0.00016
 930  H 9   f 3      0.00001   0.00025   0.00041   0.00011  -0.00024   0.00005
 931  H 9   f 4      0.00003  -0.00002   0.00034   0.00024  -0.00028  -0.00005
 932  H 9   f 5      0.00002   0.00001   0.00035   0.00031  -0.00007  -0.00001
 933  H 9   f 6      0.00000  -0.00002   0.00013  -0.00017  -0.00015  -0.00001
 934  H 9   f 7      0.00006   0.00040   0.00039   0.00013  -0.00018  -0.00001
 935  H 9   f 1      0.00008   0.00068   0.00060  -0.00413  -0.00595  -0.00171
 936  H 9   f 2     -0.00016   0.00085  -0.00039  -0.00351  -0.00135  -0.00005
 937  H 9   f 3     -0.00006  -0.00243  -0.00252   0.00355  -0.00126  -0.00267
 938  H 9   f 4      0.00012  -0.00070   0.00008   0.00262   0.00035  -0.00057
 939  H 9   f 5     -0.00008  -0.00098  -0.00177   0.00210   0.00028  -0.00093
 940  H 9   f 6      0.00017   0.00005  -0.00007   0.00191  -0.00236  -0.00149
 941  H 9   f 7     -0.00017  -0.00506  -0.00150   0.00833  -0.00319  -0.00375
 942  H 9   g 1     -0.00000  -0.00015  -0.00004   0.00016  -0.00036  -0.00029
 943  H 9   g 2      0.00000   0.00007  -0.00001  -0.00012  -0.00027  -0.00010
 944  H 9   g 3     -0.00001  -0.00009  -0.00008   0.00027   0.00000  -0.00012
 945  H 9   g 4      0.00001  -0.00003   0.00012   0.00028  -0.00005  -0.00006
 946  H 9   g 5      0.00001   0.00003   0.00008  -0.00018   0.00004   0.00009
 947  H 9   g 6      0.00000  -0.00007   0.00002   0.00020   0.00006  -0.00002
 948  H 9   g 7      0.00001   0.00002   0.00004  -0.00011   0.00014   0.00011
 949  H 9   g 8      0.00002  -0.00004   0.00009   0.00033  -0.00004  -0.00009
 950  H 9   g 9     -0.00001  -0.00021   0.00001   0.00064   0.00028  -0.00001
 951  H 10  s       -0.00017  -0.00753  -0.00207   0.00789   0.00188  -0.00142
 952  H 10  s       -0.00089  -0.02059  -0.02356   0.00734   0.00601   0.00340
 953  H 10  s       -0.00635  -0.01377   0.17215   0.21776  -0.01195  -0.08686
 954  H 10  s        0.01194   0.63940   0.82983   0.23400   0.06875  -0.02400
 955  H 10  s        0.00516  -0.88015   0.15174   1.42574  -0.00044  -0.10656
 956  H 10  px      -0.00002  -0.00284  -0.00045   0.00265   0.00040  -0.00025
 957  H 10  py       0.00003   0.00091   0.00040  -0.00102   0.00025   0.00011
 958  H 10  pz      -0.00000  -0.00043  -0.00020   0.00024   0.00014   0.00009
 959  H 10  px       0.00024   0.00506   0.00464  -0.00144  -0.00292  -0.00150
 960  H 10  py      -0.00025  -0.00194  -0.00388   0.00072  -0.00190   0.00059
 961  H 10  pz       0.00015   0.00022   0.00231   0.00035  -0.00148  -0.00073
 962  H 10  px       0.00071  -0.07230  -0.08188  -0.01046   0.00840   0.02960
 963  H 10  py       0.00140   0.01738   0.03521  -0.00974   0.00974  -0.01210
 964  H 10  pz      -0.00070  -0.00359  -0.03702  -0.00724   0.00524  -0.00852
 965  H 10  px      -0.00391  -0.22686  -0.25692  -0.04574  -0.00296   0.04295
 966  H 10  py       0.00517   0.08485   0.12666   0.03269   0.00338  -0.01326
 967  H 10  pz      -0.00458  -0.06802  -0.11347   0.02604  -0.04442  -0.06946
 968  H 10  d 1      0.00003  -0.00052   0.00029   0.00013   0.00013  -0.00027
 969  H 10  d 2     -0.00001  -0.00019   0.00020   0.00007  -0.00023   0.00018
 970  H 10  d 3      0.00001   0.00022   0.00045  -0.00005   0.00008   0.00001
 971  H 10  d 4     -0.00001   0.00059  -0.00066  -0.00051   0.00040  -0.00002
 972  H 10  d 5     -0.00001   0.00015  -0.00035  -0.00075  -0.00002   0.00029
 973  H 10  d 1     -0.00012   0.00216  -0.00268  -0.00029  -0.00064   0.00314
 974  H 10  d 2      0.00002   0.00109  -0.00178  -0.00068   0.00087  -0.00088
 975  H 10  d 3      0.00001  -0.00207  -0.00403  -0.00116  -0.00062   0.00185
 976  H 10  d 4      0.00004  -0.00238   0.00580   0.00434  -0.00124   0.00051
 977  H 10  d 5     -0.00012   0.00183   0.00593   0.00684   0.00135  -0.00303
 978  H 10  d 1     -0.00246  -0.02383  -0.03875   0.00022  -0.00280   0.01180
 979  H 10  d 2     -0.00152  -0.00633  -0.01698  -0.00031  -0.00502  -0.00380
 980  H 10  d 3     -0.00027  -0.01765  -0.01198  -0.00325   0.00346   0.01555
 981  H 10  d 4      0.00184   0.01503   0.03614  -0.00778   0.00721   0.01915
 982  H 10  d 5      0.00029   0.03972   0.03356   0.00187  -0.00255  -0.00693
 983  H 10  f 1     -0.00003  -0.00016   0.00003   0.00004   0.00009  -0.00021
 984  H 10  f 2     -0.00002  -0.00020   0.00000   0.00008   0.00004  -0.00009
 985  H 10  f 3     -0.00001  -0.00007   0.00004  -0.00004  -0.00019   0.00005
 986  H 10  f 4     -0.00002  -0.00006   0.00017   0.00035  -0.00009  -0.00009
 987  H 10  f 5     -0.00002  -0.00005   0.00029   0.00035   0.00007  -0.00018
 988  H 10  f 6      0.00001   0.00011  -0.00006  -0.00051   0.00002   0.00027
 989  H 10  f 7      0.00002   0.00008  -0.00013  -0.00041  -0.00005   0.00016
 990  H 10  f 1      0.00052   0.00276   0.00685   0.00064   0.00002  -0.00316
 991  H 10  f 2      0.00046   0.00101   0.00556   0.00047   0.00018   0.00154
 992  H 10  f 3      0.00000   0.00002  -0.00129   0.00020   0.00127   0.00143
 993  H 10  f 4      0.00032   0.00081   0.00514  -0.00053   0.00083   0.00225
 994  H 10  f 5      0.00010   0.00362   0.00121   0.00016  -0.00063  -0.00344
 995  H 10  f 6     -0.00021  -0.00144  -0.00611   0.00071  -0.00060  -0.00356
 996  H 10  f 7      0.00007  -0.00544  -0.00412  -0.00213  -0.00045   0.00024
 997  H 10  g 1     -0.00003  -0.00018  -0.00046  -0.00008   0.00001   0.00027
 998  H 10  g 2     -0.00004  -0.00002  -0.00054  -0.00010  -0.00001  -0.00012
 999  H 10  g 3     -0.00000  -0.00001   0.00006   0.00008  -0.00007  -0.00021
1000  H 10  g 4      0.00001  -0.00001   0.00022   0.00001  -0.00001   0.00005
1001  H 10  g 5     -0.00000   0.00014   0.00001   0.00009  -0.00003  -0.00021
1002  H 10  g 6     -0.00003  -0.00010  -0.00053  -0.00007  -0.00006  -0.00019
1003  H 10  g 7      0.00000  -0.00021   0.00001  -0.00009   0.00004   0.00026
1004  H 10  g 8      0.00000   0.00011   0.00030   0.00009   0.00004   0.00018
1005  H 10  g 9     -0.00002   0.00032   0.00016   0.00023   0.00000   0.00006

          Ground-State Mulliken Net Atomic Charges

     Atom                 Charge (a.u.)
  ----------------------------------------
      1 O                    -0.757572
      2 H                     0.325965
      3 H                     0.407103
      4 O                    -0.682107
      5 H                     0.268658
      6 H                     0.409718
      7 O                    -0.686969
      8 H                     0.347519
      9 H                     0.328950
     10 O                    -0.594741
     11 H                     0.328543
     12 H                     0.264719
     13 O                    -0.649536
     14 H                     0.359341
     15 H                     0.330412
  ----------------------------------------
  Sum of atomic charges =     0.000000

 -----------------------------------------------------------------
                    Cartesian Multipole Moments
 -----------------------------------------------------------------
    Charge (ESU x 10^10)
                -0.0000
    Dipole Moment (Debye)
         X       3.6382      Y      -5.9217      Z       3.3609
       Tot       7.7200
    Quadrupole Moments (Debye-Ang)
        XX     -29.1942     XY     -10.1895     YY     -37.2407
        XZ      -4.8831     YZ      -7.3363     ZZ     -34.0145
    Octopole Moments (Debye-Ang^2)
       XXX      18.2463    XXY      -3.4728    XYY      -4.4535
       YYY     -62.7824    XXZ      14.9262    XYZ       5.9103
       YYZ      10.1082    XZZ       2.4350    YZZ       2.9981
       ZZZ      33.3886
    Hexadecapole Moments (Debye-Ang^3)
      XXXX    -204.4689   XXXY     -55.1027   XXYY    -137.4302
      XYYY     -87.1348   YYYY    -584.9909   XXXZ     -11.8669
      XXYZ     -32.0988   XYYZ      13.8892   YYYZ     -42.1769
      XXZZ     -93.9626   XYZZ     -35.0310   YYZZ    -191.0117
      XZZZ     -38.4942   YZZZ     -66.0334   ZZZZ    -477.2037
 -----------------------------------------------------------------
 Total job time:  4176.62s(wall), 98585.17s(cpu) 
 Tue Jan 14 17:18:19 2025

        *************************************************************
        *                                                           *
        *  Thank you very much for using Q-Chem.  Have a nice day.  *
        *                                                           *
        *************************************************************


