                  Welcome to Q-Chem
     A Quantum Leap Into The Future Of Chemistry


 Q-Chem 6.2 (devel), Q-Chem, Inc., Pleasanton, CA (2024)

 E. Epifanovsky,  A. T. B. Gilbert,  Xintian Feng,  Joonho Lee,  Yuezhi Mao,  
 N. Mardirossian,  P. Pokhilko,  A. White,  M. Wormit,  M. P. Coons,  
 A. L. Dempwolff,  Zhengting Gan,  D. Hait,  P. R. Horn,  L. D. Jacobson,  
 I. Kaliman,  J. Kussmann,  A. W. Lange,  Ka Un Lao,  D. S. Levine,  Jie Liu,  
 S. C. McKenzie,  A. F. Morrison,  K. D. Nanda,  F. Plasser,  D. R. Rehn,  
 M. L. Vidal,  Zhi-Qiang You,  Ying Zhu,  Huseyin Aksu,  B. Alam,  
 B. Albrecht,  A. Aldossary,  E. Alguire,  J. H. Andersen,  
 J. E. Arias-Martinez,  V. Athavale,  D. Barton,  K. Begam,  A. Behn,  
 N. Bellonzi,  Y. A. Bernard,  E. J. Berquist,  H. Burton,  A. Carreras,  
 K. Carter-Fenk,  Mathew Chow,  Romit Chakraborty,  Chandrima Chakravarty,  
 Junhan Chen,  A. D. Chien,  K. D. Closser,  V. Cofer-Shabica,  L. Cunha,  
 S. Dasgupta,  Jia Deng,  Joseph Dickinson,  M. de Wergifosse,  
 M. Diedenhofen,  Hainam Do,  Wenjie Dou,  S. Ehlert,  Po-Tung Fang,  
 S. Fatehi,  Qingguo Feng,  Jonathan Fetherolf,  T. Friedhoff,  
 Thomas Froitzheim,  Sarai Folkestad,  B. Ganoe,  J. Gayvert,  Qinghui Ge,  
 G. Gidofalvi,  M. Gimferrer,  M. Goldey,  Montgomery Gray,  J. Gomes,  
 C. Gonzalez-Espinoza,  S. Gulania,  A. Gunina,  J. A. Gyamfi,  
 M. W. D. Hanson-Heine,  P. H. P. Harbach,  A. W. Hauser,  M. F. Herbst,  
 M. Hernandez Vera,  M. Hodecker,  Z. C. Holden,  S. Houck,  Xunkun Huang,  
 Kerwin Hui,  B. C. Huynh,  K. Ikeda,  M. Ivanov,  Nayanthara K. Jayadev,  
 Hyunjun Ji,  Zuxin Jin,  Hanjie Jiang,  Subrata Jana,  B. Kaduk,  
 S. Kaehler,  R. Kang,  K. Khistyaev,  Jaehoon Kim,  Yongbin Kim,  
 P. Klunzinger,  Z. Koczor-Benda,  Joong Hoon Koh,  D. Kosenkov,  
 Saikiran Kotaru,  L. Koulias,  T. Kowalczyk,  C. M. Krauter,  K. Kue,  
 A. Kunitsa,  T. Kus,  A. Landau,  K. V. Lawler,  D. Lefrancois,  S. Lehtola,  
 Rain Li,  Shaozhi Li,  Tao E. Li,  Yi-Pei Li,  Jiashu Liang,  M. Liebenthal,  
 Hung-Hsuan Lin,  You-Sheng Lin,  Fenglai Liu,  Kuan-Yu Liu,  Xiao Liu,  
 M. Loipersberger,  A. Luenser,  C. Malbon,  Aniket Mandal,  Manisha,  
 A. Manjanath,  P. Manohar,  E. Mansoor,  S. F. Manzer,  Shan-Ping Mao,  
 A. V. Marenich,  T. Markovich,  S. Mason,  F. Matz,  S. A. Maurer,  
 Samuel May,  Alexandra McIsaac,  P. F. McLaughlin,  M. F. S. J. Menger,  
 J.-M. Mewes,  S. A. Mewes,  P. Morgante,  Mohammad Mostafanejad,  
 Madhubani Mukherjee,  J. W. Mullinax,  Quyen Nguyen,  Avik Kumar Ojha,  
 K. J. Oosterbaan,  Eno Paenurk,  Xiaoliang Pan,  G. Paran,  V. Parravicini,  
 Alexander C. Paul,  Suranjan K. Paul,  F. Pavosevic,  Zheng Pei,  S. Prager,  
 E. I. Proynov,  E. Ramos,  B. Rana,  A. E. Rask,  A. Rettig,  R. M. Richard,  
 F. Rob,  E. Rossomme,  T. Scheele,  M. Scheurer,  M. Schneider,  
 P. E. Schneider,  Tim K. Schramm,  N. Sergueev,  S. M. Sharada,  
 Hengyuan Shen,  W. Skomorowski,  D. W. Small,  C. J. Stein,  
 Alistair J. Sterling,  Yingli Su,  Yu-Chuan Su,  E. J. Sundstrom,  
 J. Talbot,  Zhen Tao,  J. Thirman,  Hung-Yi Tsai,  T. Tsuchimochi,  
 N. M. Tubman,  C. Utku,  S. P. Veccham,  O. Vydrov,  Rahel Weiss,  
 J. Wenzel,  Jonathan Wong,  J. Witte,  H. Wu,  Yanze Wu,  A. Yamada,  
 Chou-Hsun Yang,  Kun Yao,  S. Yeganeh,  S. R. Yost,  Qi Yu,  A. Zech,  
 F. Zeller,  Chongxiao Zhao,  Igor Ying Zhang,  Xing Zhang,  Yu Zhang,  
 D. Zuev,  A. Aspuru-Guzik,  A. T. Bell,  N. A. Besley,  K. B. Bravaya,  
 B. R. Brooks,  D. Casanova,  Jeng-Da Chai,  Hsing-Ta Chen,  S. Coriani,  
 C. J. Cramer,  A. E. DePrince, III,  R. A. DiStasio Jr.,  A. Dreuw,  
 B. D. Dunietz,  T. R. Furlani,  W. A. Goddard III,  S. Grimme,  
 S. Hammes-Schiffer,  T. Head-Gordon,  W. J. Hehre,  Chao-Ping Hsu,  
 T.-C. Jagau,  Yousung Jung,  A. Klamt,  Jing Kong,  D. S. Lambrecht,  
 Xiangyuan Li,  WanZhen Liang,  N. J. Mayhall,  C. W. McCurdy,  J. B. Neaton,  
 T. Neudecker,  C. Ochsenfeld,  J. A. Parkhill,  R. Peverati,  
 V. A. Rassolov,  Haisheng Ren,  Yihan Shao,  L. V. Slipchenko,  
 R. P. Steele,  J. E. Subotnik,  A. J. W. Thom,  A. Tkatchenko,  
 D. G. Truhlar,  T. Van Voorhis,  Fan Wang,  T. A. Wesolowski,  K. B. Whaley,  
 H. L. Woodcock III,  P. M. Zimmerman,  S. Faraji,  P. M. W. Gill,  
 M. Head-Gordon,  J. M. Herbert,  A. I. Krylov

 Contributors to earlier versions of Q-Chem not listed above: 
 R. D. Adamson,  B. Austin,  R. Baer,  J. Baker,  G. J. O. Beran,  
 K. Brandhorst,  S. T. Brown,  E. F. C. Byrd,  Arup K. Chakraborty,  
 G. K. L. Chan,  Chun-Min Chang,  Yunqing Chen,  C.-L. Cheng,  
 Siu Hung Chien,  D. M. Chipman,  D. L. Crittenden,  H. Dachsel,  
 R. J. Doerksen,  A. D. Dutoi,  R. G. Edgar,  J. Fosso-Tande,  
 L. Fusti-Molnar,  D. Ghosh,  A. Ghysels,  A. Golubeva-Zadorozhnaya,  
 J. Gonthier,  M. S. Gordon,  S. R. Gwaltney,  G. Hawkins,  J. E. Herr,  
 A. Heyden,  S. Hirata,  E. G. Hohenstein,  G. Kedziora,  F. J. Keil,  
 C. Kelley,  Jihan Kim,  R. A. King,  R. Z. Khaliullin,  P. P. Korambath,  
 W. Kurlancheek,  A. Laurent,  A. M. Lee,  M. S. Lee,  S. V. Levchenko,  
 Ching Yeh Lin,  D. Liotard,  E. Livshits,  R. C. Lochan,  I. Lotan,  
 L. A. Martinez-Martinez,  P. E. Maslen,  N. Nair,  D. P. O'Neill,  
 D. Neuhauser,  E. Neuscamman,  C. M. Oana,  R. Olivares-Amaya,  R. Olson,  
 T. M. Perrine,  B. Peters,  P. A. Pieniazek,  A. Prociuk,  Y. M. Rhee,  
 J. Ritchie,  M. A. Rohrdanz,  E. Rosta,  N. J. Russ,  H. F. Schaefer III,  
 M. W. Schmidt,  N. E. Schultz,  S. Sharma,  N. Shenvi,  C. D. Sherrill,  
 A. C. Simmonett,  A. Sodt,  T. Stein,  D. Stuck,  K. S. Thanthiriwatte,  
 V. Vanovschi,  L. Vogt,  Tao Wang,  A. Warshel,  M. A. Watson,  
 C. F. Williams,  Q. Wu,  X. Xu,  Jun Yang,  W. Zhang,  Yan Zhao

   Please cite Q-Chem as follows:
  "Software for the frontiers of quantum chemistry:
   An overview of developments in the Q-Chem 5 package"
   J. Chem. Phys. 155, 084801 (2021)
   https://doi.org/10.1063/5.0055522 (open access)

 Q-Chem 6.2.2 for Intel X86 EM64T Linux

 Parts of Q-Chem use Armadillo 9.900.5 (Nocturnal Misbehaviour).
 http://arma.sourceforge.net/

 Q-Chem begins on Sat Dec 21 17:14:09 2024  

 Host: compute-0-15.local
0

     Scratch files written to /scratch/keith/A2D1_1//
 Processing $rem in /home/keith/software/qchem/qchem_622/config/preferences:
 Processing $rem in /home/keith/.qchemrc:

 Checking the input file for inconsistencies... 	...done.

--------------------------------------------------------------
User input:
--------------------------------------------------------------
$molecule
read
$end

$rem
method                    b3lyp 
basis                     cc-pv5z 
mem_total                 128000
mem_static                4000
thresh                    12
scf_convergence           8
xc_grid                   000075000302
max_scf_cycles            2000
symmetry                  false
sym_ignore                true
scf_guess                 read
mom_start                 1
cis_n_roots               200
cis_triplets              false
rpa                       false 
trnss                     true
trtype                    2
n_sol                     131
nto_pairs                 2
gui                       2
print_orbitals            true
state_analysis            true
$end

$solute 
4 1582 1583 1584 1585 1586 1587 1588 1589 1590 1591 1592 1593 1594 1595 1596 1597 1598 1599 1600 1601 1602 1603 1604 1605 1606 1607 1608 1609 1610 1611 1612 1613 1614 1615 1616 1617 1618 1619 1620 1621 1622 1623 1624 1625 1626 1627 1628 1629 1630 1631 1632 1633 1634 1635 1636 1637 1638 1639 1640 1641 1642 1643 1644 1645 1646 1647 1648 1649 1650 1651 1652 1653 1654 1655 1656 1657 1658 1659 1660 1661 1662 1663 1664 1665 1666 1667 1668 1669 1670 1671 1672 1673 1674 1675 1676 1677 1678 1679 1680 1681 1682 1683 1684 1685 1686 1687 1688 1689 1690 1691 1692 1693 1694 1695 1696 1697 1698 1699 1700 1701 1702 1703 1704 1705 1706 1707 1708 1709 1710 1711
$end
--------------------------------------------------------------
 ----------------------------------------------------------------
             Standard Nuclear Orientation (Angstroms)
    I     Atom           X                Y                Z
 ----------------------------------------------------------------
    1      O       0.6183800000    -0.4701600000     0.3638200000
    2      H      -0.3420200000    -0.3624600000     0.4198200000
    3      H       0.7733800000    -1.4191600000     0.5908200000
    4      O       1.9620800000     1.9165400000     0.5268200000
    5      H       1.3240800000     2.6015400000     0.6738200000
    6      H       1.3796800000     1.1835400000     0.5838200000
    7      O      -2.1852200000    -0.3837600000     2.1688200000
    8      H      -2.7203200000    -1.1718600000     2.4768200000
    9      H      -2.8985200000     0.1505400000     1.6918200000
   10      O       0.4149800000    -0.7182600000    -2.9701800000
   11      H      -0.4074200000    -0.2384600000    -3.1081800000
   12      H       0.7285800000    -0.5665600000    -2.0571800000
   13      O      -2.8681200000    -0.6836600000    -1.9811800000
   14      H      -2.4191200000    -0.0234600000    -1.4201800000
   15      H      -3.6748200000    -0.7610600000    -1.5071800000
   16      O       3.0390800000     0.1535400000    -1.6491800000
   17      H       3.7630800000     0.0975400000    -1.0081800000
   18      H       2.6640800000     0.9505400000    -1.2271800000
   19      O      -1.8848200000     1.8875400000    -1.0201800000
   20      H      -2.5368200000     2.5545400000    -1.1371800000
   21      H      -1.3465200000     2.1585400000    -0.2621800000
   22      O      -0.2784200000     1.3275400000     3.3858200000
   23      H      -0.6178200000     0.4825400000     3.0388200000
   24      H       0.5502800000     1.0165400000     3.8408200000
   25      O       1.3091800000    -3.0453600000     0.9738200000
   26      H       2.1910800000    -2.7858600000     1.3248200000
   27      H       1.5714800000    -3.6116600000     0.2858200000
 ----------------------------------------------------------------
 Nuclear Repulsion Energy =         540.92617116 hartrees
 There are       45 alpha and       45 beta electrons
 Requested basis set is cc-pV5Z
 There are 459 shells and 1809 basis functions

 Total QAlloc Memory Limit 128000 MB
 Mega-Array Size      3911 MB
 MEM_STATIC part      4000 MB

 A cutoff of  1.0D-12 yielded  58179 shell pairs
 There are    724139 function pairs (   1175551 Cartesian)
 Smallest overlap matrix eigenvalue = 1.67E-05

 Scale SEOQF with 1.000000e-01/1.000000e-01/1.000000e-01

 Standard Electronic Orientation quadrupole field applied
 Nucleus-field energy     =    -0.0000000089 hartrees
 Guess MOs from SCF MO coefficient file

 -----------------------------------------------------------------------
  General SCF calculation program by
  Eric Jon Sundstrom, Paul Horn, Yuezhi Mao, Dmitri Zuev, Alec White,
  David Stuck, Shaama M.S., Shane Yost, Joonho Lee, David Small,
  Daniel Levine, Susi Lehtola, Hugh Burton, Evgeny Epifanovsky,
  Bang C. Huynh
 -----------------------------------------------------------------------
 Exchange:     0.2000 Hartree-Fock + 0.0800 Slater + 0.7200 B88
 Correlation:  0.1900 VWN1RPA + 0.8100 LYP
 Using Euler-Maclaurin-Lebedev (75,302) quadrature formula
 A restricted SCF calculation will be
 performed using DIIS
 SCF converges when DIIS error is below 1.0e-08
 ---------------------------------------
  Cycle       Energy         DIIS error
 ---------------------------------------
Maximum Overlap Method Active
 MOM overlap:    45.0 / 45
    1    -688.2800862310      6.75e-10  
    2    -688.2800862310      1.11e-09  Convergence criterion met
Maximum Overlap Method Active
 MOM overlap:    45.00 / 45
 ---------------------------------------
 SCF time:   CPU 29456.52s  wall 7388.00s 
 SCF   energy =  -688.28008623
 Total energy =  -688.28008623
 MAX_CIS_SUBSPACE fits in available memory
 Direct TDDFT/TDA calculation will be performed
 Exchange:     0.2000 Hartree-Fock + 0.0800 Slater + 0.7200 B88
 Correlation:  0.1900 VWN1RPA + 0.8100 LYP
 Using Euler-Maclaurin-Lebedev (75,302) quadrature formula
 Singlet excitation energies requested
 CIS energy converged when residual is below 10e- 6
   
 ***Using a Restricted Set of Single Excitations***
   
 RCIS calculation
   
 Excitations limited to defined orbital subspace
 -------------------------------------------------------------
              Orbitals in Truncated CIS space
 -------------------------------------------------------------
     415821583158415851586158715881589159015911592159315941595
  159615971598159916001601160216031604160516061607160816091610
  161116121613161416151616161716181619162016211622162316241625
  162616271628162916301631163216331634163516361637163816391640
  164116421643164416451646164716481649165016511652165316541655
  165616571658165916601661166216631664166516661667166816691670
  167116721673167416751676167716781679168016811682168316841685
  168616871688168916901691169216931694169516961697169816991700
  17011702170317041705170617071708170917101711
   
    Number of Occupied Orbitals =    1  out of    45
    Number of Virtual Orbitals  =  130  out of  1764
 -------------------------------------------------------------
 Number of Roots adjusted to:         130
 ---------------------------------------------------
 Iter    Rts Conv    Rts Left    Ttl Dev     Max Dev
 ---------------------------------------------------
   1       130           0      0.008440    0.000343    Roots Converged
 ---------------------------------------------------

 ---------------------------------------------------
         TDDFT/TDA Excitation Energies              
 ---------------------------------------------------

 Excited state   1: excitation energy (eV) =    1016.4154
 Total energy for state   1:                  -650.92750862 au
    Multiplicity: Singlet
    Trans. Mom.: -0.0055 X   0.0164 Y  -0.0028 Z
    Strength   :     0.0076085248
    D(    4) --> V( 1537) amplitude =  0.5720
    D(    4) --> V( 1538) amplitude = -0.5447
    D(    4) --> V( 1539) amplitude = -0.4391
    D(    4) --> V( 1541) amplitude =  0.2422
    D(    4) --> V( 1547) amplitude = -0.2584

 Excited state   2: excitation energy (eV) =    1018.1624
 Total energy for state   2:                  -650.86330649 au
    Multiplicity: Singlet
    Trans. Mom.: -0.0094 X  -0.0023 Y   0.0021 Z
    Strength   :     0.0024644336
    D(    4) --> V( 1547) amplitude =  0.7554
    D(    4) --> V( 1548) amplitude = -0.3628

 Excited state   3: excitation energy (eV) =    1019.1341
 Total energy for state   3:                  -650.82759959 au
    Multiplicity: Singlet
    Trans. Mom.: -0.0027 X   0.0031 Y  -0.0001 Z
    Strength   :     0.0004196032
    D(    4) --> V( 1537) amplitude =  0.7547
    D(    4) --> V( 1538) amplitude =  0.5751
    D(    4) --> V( 1539) amplitude =  0.2410

 Excited state   4: excitation energy (eV) =    1019.4057
 Total energy for state   4:                  -650.81761806 au
    Multiplicity: Singlet
    Trans. Mom.:  0.0010 X  -0.0007 Y  -0.0001 Z
    Strength   :     0.0000369411
    D(    4) --> V( 1538) amplitude = -0.4927
    D(    4) --> V( 1539) amplitude =  0.7963

 Excited state   5: excitation energy (eV) =    1019.4829
 Total energy for state   5:                  -650.81478207 au
    Multiplicity: Singlet
    Trans. Mom.: -0.0063 X   0.0069 Y  -0.0002 Z
    Strength   :     0.0022007656
    D(    4) --> V( 1539) amplitude =  0.2470
    D(    4) --> V( 1540) amplitude =  0.7063
    D(    4) --> V( 1541) amplitude =  0.3913
    D(    4) --> V( 1551) amplitude =  0.2149
    D(    4) --> V( 1553) amplitude =  0.2464

 Excited state   6: excitation energy (eV) =    1019.7077
 Total energy for state   6:                  -650.80651913 au
    Multiplicity: Singlet
    Trans. Mom.: -0.0012 X   0.0028 Y   0.0002 Z
    Strength   :     0.0002360614
    D(    4) --> V( 1540) amplitude = -0.5044
    D(    4) --> V( 1541) amplitude =  0.8260

 Excited state   7: excitation energy (eV) =    1019.9907
 Total energy for state   7:                  -650.79612017 au
    Multiplicity: Singlet
    Trans. Mom.:  0.0103 X  -0.0086 Y   0.0010 Z
    Strength   :     0.0045155018
    D(    4) --> V( 1540) amplitude =  0.4434
    D(    4) --> V( 1541) amplitude =  0.2643
    D(    4) --> V( 1544) amplitude =  0.2503
    D(    4) --> V( 1550) amplitude = -0.4231
    D(    4) --> V( 1551) amplitude = -0.4277
    D(    4) --> V( 1553) amplitude = -0.3509
    D(    4) --> V( 1560) amplitude = -0.2141

 Excited state   8: excitation energy (eV) =    1020.4940
 Total energy for state   8:                  -650.77762420 au
    Multiplicity: Singlet
    Trans. Mom.:  0.0010 X  -0.0006 Y   0.0001 Z
    Strength   :     0.0000334258
    D(    4) --> V( 1542) amplitude =  0.9987

 Excited state   9: excitation energy (eV) =    1020.9200
 Total energy for state   9:                  -650.76196893 au
    Multiplicity: Singlet
    Trans. Mom.:  0.0001 X   0.0016 Y  -0.0005 Z
    Strength   :     0.0000730273
    D(    4) --> V( 1543) amplitude =  0.9799

 Excited state  10: excitation energy (eV) =    1021.0990
 Total energy for state  10:                  -650.75538946 au
    Multiplicity: Singlet
    Trans. Mom.:  0.0037 X  -0.0011 Y   0.0007 Z
    Strength   :     0.0003885546
    D(    4) --> V( 1544) amplitude =  0.7903
    D(    4) --> V( 1545) amplitude =  0.2776
    D(    4) --> V( 1553) amplitude =  0.3876

 Excited state  11: excitation energy (eV) =    1021.2217
 Total energy for state  11:                  -650.75087929 au
    Multiplicity: Singlet
    Trans. Mom.: -0.0056 X   0.0023 Y  -0.0008 Z
    Strength   :     0.0009419784
    D(    4) --> V( 1544) amplitude =  0.5192
    D(    4) --> V( 1545) amplitude = -0.4227
    D(    4) --> V( 1546) amplitude = -0.2480
    D(    4) --> V( 1550) amplitude =  0.3377
    D(    4) --> V( 1551) amplitude =  0.2620
    D(    4) --> V( 1553) amplitude = -0.3458
    D(    4) --> V( 1563) amplitude =  0.2133

 Excited state  12: excitation energy (eV) =    1021.4672
 Total energy for state  12:                  -650.74185783 au
    Multiplicity: Singlet
    Trans. Mom.: -0.0031 X   0.0000 Y  -0.0001 Z
    Strength   :     0.0002424478
    D(    4) --> V( 1545) amplitude =  0.8480
    D(    4) --> V( 1546) amplitude = -0.2382
    D(    4) --> V( 1553) amplitude = -0.3268

 Excited state  13: excitation energy (eV) =    1021.6577
 Total energy for state  13:                  -650.73485913 au
    Multiplicity: Singlet
    Trans. Mom.: -0.0031 X   0.0013 Y   0.0002 Z
    Strength   :     0.0002808717
    D(    4) --> V( 1546) amplitude =  0.9281

 Excited state  14: excitation energy (eV) =    1022.5872
 Total energy for state  14:                  -650.70069796 au
    Multiplicity: Singlet
    Trans. Mom.: -0.0008 X   0.0005 Y   0.0001 Z
    Strength   :     0.0000215792
    D(    4) --> V( 1547) amplitude =  0.4160
    D(    4) --> V( 1548) amplitude =  0.9071

 Excited state  15: excitation energy (eV) =    1023.0154
 Total energy for state  15:                  -650.68496246 au
    Multiplicity: Singlet
    Trans. Mom.:  0.0010 X  -0.0005 Y  -0.0001 Z
    Strength   :     0.0000288446
    D(    4) --> V( 1549) amplitude =  0.9676
    D(    4) --> V( 1551) amplitude =  0.2295

 Excited state  16: excitation energy (eV) =    1023.3053
 Total energy for state  16:                  -650.67431020 au
    Multiplicity: Singlet
    Trans. Mom.: -0.0002 X   0.0005 Y  -0.0001 Z
    Strength   :     0.0000077306
    D(    4) --> V( 1549) amplitude = -0.2251
    D(    4) --> V( 1550) amplitude = -0.6755
    D(    4) --> V( 1551) amplitude =  0.6981

 Excited state  17: excitation energy (eV) =    1024.0914
 Total energy for state  17:                  -650.64542315 au
    Multiplicity: Singlet
    Trans. Mom.:  0.0022 X   0.0007 Y  -0.0007 Z
    Strength   :     0.0001507344
    D(    4) --> V( 1552) amplitude =  0.7047
    D(    4) --> V( 1554) amplitude =  0.5433

 Excited state  18: excitation energy (eV) =    1024.4077
 Total energy for state  18:                  -650.63379643 au
    Multiplicity: Singlet
    Trans. Mom.: -0.0009 X  -0.0004 Y  -0.0001 Z
    Strength   :     0.0000252913
    D(    4) --> V( 1552) amplitude =  0.6345
    D(    4) --> V( 1553) amplitude =  0.4388
    D(    4) --> V( 1554) amplitude = -0.5981

 Excited state  19: excitation energy (eV) =    1024.9916
 Total energy for state  19:                  -650.61234146 au
    Multiplicity: Singlet
    Trans. Mom.:  0.0007 X  -0.0027 Y   0.0009 Z
    Strength   :     0.0002181247
    D(    4) --> V( 1553) amplitude =  0.3182
    D(    4) --> V( 1554) amplitude =  0.3644
    D(    4) --> V( 1560) amplitude = -0.3992
    D(    4) --> V( 1561) amplitude =  0.3120
    D(    4) --> V( 1562) amplitude = -0.3999
    D(    4) --> V( 1570) amplitude =  0.4072
    D(    4) --> V( 1572) amplitude = -0.2297

 Excited state  20: excitation energy (eV) =    1025.1335
 Total energy for state  20:                  -650.60712571 au
    Multiplicity: Singlet
    Trans. Mom.:  0.0018 X  -0.0003 Y  -0.0002 Z
    Strength   :     0.0000823257
    D(    4) --> V( 1554) amplitude = -0.2477
    D(    4) --> V( 1555) amplitude = -0.2348
    D(    4) --> V( 1556) amplitude =  0.9026

 Excited state  21: excitation energy (eV) =    1025.2239
 Total energy for state  21:                  -650.60380261 au
    Multiplicity: Singlet
    Trans. Mom.:  0.0101 X  -0.0064 Y   0.0008 Z
    Strength   :     0.0036146587
    D(    4) --> V( 1555) amplitude =  0.6738
    D(    4) --> V( 1557) amplitude = -0.2389
    D(    4) --> V( 1560) amplitude = -0.4416
    D(    4) --> V( 1563) amplitude = -0.3726

 Excited state  22: excitation energy (eV) =    1025.3275
 Total energy for state  22:                  -650.59999555 au
    Multiplicity: Singlet
    Trans. Mom.: -0.0075 X   0.0050 Y  -0.0006 Z
    Strength   :     0.0020596822
    D(    4) --> V( 1555) amplitude =  0.6977
    D(    4) --> V( 1556) amplitude =  0.2890
    D(    4) --> V( 1557) amplitude =  0.2499
    D(    4) --> V( 1560) amplitude =  0.3728
    D(    4) --> V( 1563) amplitude =  0.3126

 Excited state  23: excitation energy (eV) =    1025.6866
 Total energy for state  23:                  -650.58680072 au
    Multiplicity: Singlet
    Trans. Mom.:  0.0032 X  -0.0024 Y   0.0006 Z
    Strength   :     0.0004138116
    D(    4) --> V( 1557) amplitude =  0.9125
    D(    4) --> V( 1560) amplitude = -0.3193

 Excited state  24: excitation energy (eV) =    1026.1677
 Total energy for state  24:                  -650.56911761 au
    Multiplicity: Singlet
    Trans. Mom.: -0.0043 X   0.0004 Y   0.0010 Z
    Strength   :     0.0004989590
    D(    4) --> V( 1558) amplitude =  0.5909
    D(    4) --> V( 1561) amplitude = -0.3472
    D(    4) --> V( 1562) amplitude = -0.2411
    D(    4) --> V( 1563) amplitude =  0.4438
    D(    4) --> V( 1570) amplitude = -0.3200

 Excited state  25: excitation energy (eV) =    1026.2819
 Total energy for state  25:                  -650.56492067 au
    Multiplicity: Singlet
    Trans. Mom.:  0.0023 X   0.0005 Y  -0.0006 Z
    Strength   :     0.0001470774
    D(    4) --> V( 1558) amplitude =  0.7616
    D(    4) --> V( 1560) amplitude =  0.3769
    D(    4) --> V( 1561) amplitude =  0.2324
    D(    4) --> V( 1562) amplitude =  0.2420
    D(    4) --> V( 1563) amplitude = -0.2876

 Excited state  26: excitation energy (eV) =    1026.4447
 Total energy for state  26:                  -650.55893787 au
    Multiplicity: Singlet
    Trans. Mom.: -0.0001 X  -0.0003 Y  -0.0001 Z
    Strength   :     0.0000021325
    D(    4) --> V( 1559) amplitude =  0.9915

 Excited state  27: excitation energy (eV) =    1026.8966
 Total energy for state  27:                  -650.54233134 au
    Multiplicity: Singlet
    Trans. Mom.: -0.0012 X   0.0004 Y  -0.0009 Z
    Strength   :     0.0000638586
    D(    4) --> V( 1560) amplitude = -0.3491
    D(    4) --> V( 1561) amplitude =  0.3028
    D(    4) --> V( 1562) amplitude =  0.6968
    D(    4) --> V( 1563) amplitude =  0.5374

 Excited state  28: excitation energy (eV) =    1027.0714
 Total energy for state  28:                  -650.53590859 au
    Multiplicity: Singlet
    Trans. Mom.:  0.0018 X  -0.0000 Y  -0.0002 Z
    Strength   :     0.0000796538
    D(    4) --> V( 1561) amplitude =  0.7571
    D(    4) --> V( 1570) amplitude = -0.4882
    D(    4) --> V( 1572) amplitude =  0.2308
    D(    4) --> V( 1573) amplitude =  0.2175

 Excited state  29: excitation energy (eV) =    1027.9293
 Total energy for state  29:                  -650.50438056 au
    Multiplicity: Singlet
    Trans. Mom.:  0.0008 X   0.0003 Y  -0.0005 Z
    Strength   :     0.0000272366
    D(    4) --> V( 1564) amplitude =  0.9926

 Excited state  30: excitation energy (eV) =    1028.4167
 Total energy for state  30:                  -650.48646807 au
    Multiplicity: Singlet
    Trans. Mom.:  0.0002 X  -0.0002 Y  -0.0001 Z
    Strength   :     0.0000015597
    D(    4) --> V( 1565) amplitude =  0.9973

 Excited state  31: excitation energy (eV) =    1029.0773
 Total energy for state  31:                  -650.46219122 au
    Multiplicity: Singlet
    Trans. Mom.:  0.0017 X  -0.0003 Y  -0.0002 Z
    Strength   :     0.0000729011
    D(    4) --> V( 1566) amplitude =  0.9747

 Excited state  32: excitation energy (eV) =    1029.1962
 Total energy for state  32:                  -650.45782252 au
    Multiplicity: Singlet
    Trans. Mom.:  0.0012 X   0.0000 Y   0.0001 Z
    Strength   :     0.0000360004
    D(    4) --> V( 1567) amplitude =  0.9626

 Excited state  33: excitation energy (eV) =    1029.7108
 Total energy for state  33:                  -650.43891334 au
    Multiplicity: Singlet
    Trans. Mom.: -0.0055 X   0.0023 Y   0.0004 Z
    Strength   :     0.0008916879
    D(    4) --> V( 1567) amplitude =  0.2199
    D(    4) --> V( 1568) amplitude = -0.4207
    D(    4) --> V( 1570) amplitude =  0.3838
    D(    4) --> V( 1571) amplitude =  0.2694
    D(    4) --> V( 1572) amplitude =  0.6274
    D(    4) --> V( 1585) amplitude =  0.2177

 Excited state  34: excitation energy (eV) =    1029.9852
 Total energy for state  34:                  -650.42882703 au
    Multiplicity: Singlet
    Trans. Mom.: -0.0011 X   0.0008 Y   0.0004 Z
    Strength   :     0.0000496214
    D(    4) --> V( 1568) amplitude =  0.9040
    D(    4) --> V( 1572) amplitude =  0.3134

 Excited state  35: excitation energy (eV) =    1030.4660
 Total energy for state  35:                  -650.41115994 au
    Multiplicity: Singlet
    Trans. Mom.: -0.0006 X   0.0002 Y  -0.0001 Z
    Strength   :     0.0000095271
    D(    4) --> V( 1569) amplitude =  0.9937

 Excited state  36: excitation energy (eV) =    1031.0657
 Total energy for state  36:                  -650.38911939 au
    Multiplicity: Singlet
    Trans. Mom.:  0.0001 X   0.0001 Y  -0.0004 Z
    Strength   :     0.0000038870
    D(    4) --> V( 1571) amplitude =  0.9194
    D(    4) --> V( 1572) amplitude = -0.3905

 Excited state  37: excitation energy (eV) =    1031.3149
 Total energy for state  37:                  -650.37996353 au
    Multiplicity: Singlet
    Trans. Mom.:  0.0003 X   0.0048 Y  -0.0015 Z
    Strength   :     0.0006326941
    D(    4) --> V( 1570) amplitude =  0.3490
    D(    4) --> V( 1573) amplitude =  0.8654

 Excited state  38: excitation energy (eV) =    1031.8337
 Total energy for state  38:                  -650.36089814 au
    Multiplicity: Singlet
    Trans. Mom.: -0.0003 X   0.0017 Y  -0.0018 Z
    Strength   :     0.0001513629
    D(    4) --> V( 1574) amplitude =  0.9670

 Excited state  39: excitation energy (eV) =    1032.3981
 Total energy for state  39:                  -650.34015751 au
    Multiplicity: Singlet
    Trans. Mom.:  0.0010 X   0.0007 Y  -0.0010 Z
    Strength   :     0.0000592351
    D(    4) --> V( 1573) amplitude =  0.2316
    D(    4) --> V( 1575) amplitude =  0.4978
    D(    4) --> V( 1577) amplitude =  0.7558

 Excited state  40: excitation energy (eV) =    1032.5356
 Total energy for state  40:                  -650.33510439 au
    Multiplicity: Singlet
    Trans. Mom.: -0.0001 X  -0.0013 Y   0.0011 Z
    Strength   :     0.0000733928
    D(    4) --> V( 1575) amplitude =  0.8375
    D(    4) --> V( 1577) amplitude = -0.4967

 Excited state  41: excitation energy (eV) =    1032.8949
 Total energy for state  41:                  -650.32189917 au
    Multiplicity: Singlet
    Trans. Mom.: -0.0000 X   0.0029 Y  -0.0005 Z
    Strength   :     0.0002143116
    D(    4) --> V( 1572) amplitude =  0.2300
    D(    4) --> V( 1576) amplitude =  0.7578
    D(    4) --> V( 1584) amplitude =  0.3184
    D(    4) --> V( 1585) amplitude = -0.4488

 Excited state  42: excitation energy (eV) =    1033.1071
 Total energy for state  42:                  -650.31409931 au
    Multiplicity: Singlet
    Trans. Mom.:  0.0006 X  -0.0042 Y   0.0008 Z
    Strength   :     0.0004675098
    D(    4) --> V( 1572) amplitude = -0.2148
    D(    4) --> V( 1576) amplitude =  0.6341
    D(    4) --> V( 1584) amplitude = -0.3793
    D(    4) --> V( 1585) amplitude =  0.5350

 Excited state  43: excitation energy (eV) =    1033.9399
 Total energy for state  43:                  -650.28349727 au
    Multiplicity: Singlet
    Trans. Mom.: -0.0000 X   0.0004 Y   0.0012 Z
    Strength   :     0.0000410691
    D(    4) --> V( 1577) amplitude = -0.3152
    D(    4) --> V( 1579) amplitude =  0.8151
    D(    4) --> V( 1580) amplitude = -0.4637

 Excited state  44: excitation energy (eV) =    1034.3074
 Total energy for state  44:                  -650.26998904 au
    Multiplicity: Singlet
    Trans. Mom.: -0.0001 X   0.0002 Y  -0.0001 Z
    Strength   :     0.0000017713
    D(    4) --> V( 1578) amplitude =  0.9976

 Excited state  45: excitation energy (eV) =    1034.5448
 Total energy for state  45:                  -650.26126486 au
    Multiplicity: Singlet
    Trans. Mom.: -0.0002 X  -0.0005 Y  -0.0001 Z
    Strength   :     0.0000074882
    D(    4) --> V( 1579) amplitude =  0.5022
    D(    4) --> V( 1580) amplitude =  0.8630

 Excited state  46: excitation energy (eV) =    1035.1005
 Total energy for state  46:                  -650.24084609 au
    Multiplicity: Singlet
    Trans. Mom.:  0.0005 X  -0.0003 Y   0.0000 Z
    Strength   :     0.0000076938
    D(    4) --> V( 1581) amplitude =  0.9970

 Excited state  47: excitation energy (eV) =    1035.4073
 Total energy for state  47:                  -650.22957162 au
    Multiplicity: Singlet
    Trans. Mom.: -0.0006 X   0.0003 Y  -0.0001 Z
    Strength   :     0.0000135266
    D(    4) --> V( 1582) amplitude =  0.9980

 Excited state  48: excitation energy (eV) =    1035.6019
 Total energy for state  48:                  -650.22241910 au
    Multiplicity: Singlet
    Trans. Mom.:  0.0001 X   0.0005 Y   0.0022 Z
    Strength   :     0.0001254070
    D(    4) --> V( 1583) amplitude =  0.9963

 Excited state  49: excitation energy (eV) =    1036.5195
 Total energy for state  49:                  -650.18869837 au
    Multiplicity: Singlet
    Trans. Mom.:  0.0009 X  -0.0016 Y  -0.0005 Z
    Strength   :     0.0000951690
    D(    4) --> V( 1584) amplitude = -0.2307
    D(    4) --> V( 1586) amplitude = -0.4102
    D(    4) --> V( 1587) amplitude =  0.8312

 Excited state  50: excitation energy (eV) =    1036.7218
 Total energy for state  50:                  -650.18126203 au
    Multiplicity: Singlet
    Trans. Mom.:  0.0004 X  -0.0004 Y  -0.0001 Z
    Strength   :     0.0000072770
    D(    4) --> V( 1584) amplitude =  0.7897
    D(    4) --> V( 1585) amplitude =  0.5667

 Excited state  51: excitation energy (eV) =    1037.8018
 Total energy for state  51:                  -650.14157393 au
    Multiplicity: Singlet
    Trans. Mom.:  0.0029 X   0.0004 Y   0.0004 Z
    Strength   :     0.0002185665
    D(    4) --> V( 1586) amplitude =  0.2394
    D(    4) --> V( 1588) amplitude =  0.7153
    D(    4) --> V( 1592) amplitude = -0.5698

 Excited state  52: excitation energy (eV) =    1038.0097
 Total energy for state  52:                  -650.13393505 au
    Multiplicity: Singlet
    Trans. Mom.: -0.0007 X   0.0001 Y  -0.0002 Z
    Strength   :     0.0000130803
    D(    4) --> V( 1586) amplitude =  0.8640
    D(    4) --> V( 1587) amplitude =  0.4271

 Excited state  53: excitation energy (eV) =    1039.3400
 Total energy for state  53:                  -650.08504513 au
    Multiplicity: Singlet
    Trans. Mom.:  0.0001 X   0.0016 Y  -0.0012 Z
    Strength   :     0.0001015201
    D(    4) --> V( 1588) amplitude = -0.4051
    D(    4) --> V( 1590) amplitude =  0.6961
    D(    4) --> V( 1592) amplitude = -0.3985
    D(    4) --> V( 1600) amplitude = -0.2273

 Excited state  54: excitation energy (eV) =    1039.8829
 Total energy for state  54:                  -650.06509548 au
    Multiplicity: Singlet
    Trans. Mom.: -0.0006 X  -0.0003 Y   0.0003 Z
    Strength   :     0.0000134787
    D(    4) --> V( 1588) amplitude =  0.4057
    D(    4) --> V( 1590) amplitude =  0.6996
    D(    4) --> V( 1592) amplitude =  0.4883

 Excited state  55: excitation energy (eV) =    1039.9527
 Total energy for state  55:                  -650.06252925 au
    Multiplicity: Singlet
    Trans. Mom.:  0.0006 X   0.0002 Y  -0.0001 Z
    Strength   :     0.0000086774
    D(    4) --> V( 1589) amplitude =  0.9815

 Excited state  56: excitation energy (eV) =    1041.2058
 Total energy for state  56:                  -650.01648018 au
    Multiplicity: Singlet
    Trans. Mom.: -0.0001 X   0.0010 Y   0.0016 Z
    Strength   :     0.0000855346
    D(    4) --> V( 1591) amplitude =  0.3862
    D(    4) --> V( 1592) amplitude = -0.2677
    D(    4) --> V( 1597) amplitude =  0.2483
    D(    4) --> V( 1599) amplitude = -0.4036
    D(    4) --> V( 1600) amplitude =  0.5853

 Excited state  57: excitation energy (eV) =    1041.4921
 Total energy for state  57:                  -650.00595810 au
    Multiplicity: Singlet
    Trans. Mom.:  0.0011 X  -0.0002 Y  -0.0005 Z
    Strength   :     0.0000372829
    D(    4) --> V( 1591) amplitude =  0.9128
    D(    4) --> V( 1592) amplitude =  0.2358
    D(    4) --> V( 1600) amplitude = -0.2145

 Excited state  58: excitation energy (eV) =    1041.9987
 Total energy for state  58:                  -649.98733999 au
    Multiplicity: Singlet
    Trans. Mom.: -0.0013 X  -0.0007 Y  -0.0009 Z
    Strength   :     0.0000714795
    D(    4) --> V( 1593) amplitude = -0.4385
    D(    4) --> V( 1604) amplitude =  0.4878
    D(    4) --> V( 1605) amplitude =  0.6214
    D(    4) --> V( 1606) amplitude =  0.2747

 Excited state  59: excitation energy (eV) =    1043.3149
 Total energy for state  59:                  -649.93897124 au
    Multiplicity: Singlet
    Trans. Mom.: -0.0008 X  -0.0022 Y  -0.0036 Z
    Strength   :     0.0004607290
    D(    4) --> V( 1592) amplitude = -0.2134
    D(    4) --> V( 1593) amplitude =  0.8578
    D(    4) --> V( 1604) amplitude =  0.2384
    D(    4) --> V( 1605) amplitude =  0.3135

 Excited state  60: excitation energy (eV) =    1044.3326
 Total energy for state  60:                  -649.90156980 au
    Multiplicity: Singlet
    Trans. Mom.:  0.0004 X   0.0006 Y   0.0014 Z
    Strength   :     0.0000596658
    D(    4) --> V( 1594) amplitude =  0.9792

 Excited state  61: excitation energy (eV) =    1044.9008
 Total energy for state  61:                  -649.88068861 au
    Multiplicity: Singlet
    Trans. Mom.: -0.0005 X  -0.0001 Y  -0.0001 Z
    Strength   :     0.0000068902
    D(    4) --> V( 1595) amplitude =  0.9989

 Excited state  62: excitation energy (eV) =    1045.1901
 Total energy for state  62:                  -649.87006005 au
    Multiplicity: Singlet
    Trans. Mom.: -0.0003 X  -0.0004 Y  -0.0002 Z
    Strength   :     0.0000074515
    D(    4) --> V( 1596) amplitude =  0.9937

 Excited state  63: excitation energy (eV) =    1045.6988
 Total energy for state  63:                  -649.85136279 au
    Multiplicity: Singlet
    Trans. Mom.:  0.0024 X   0.0043 Y   0.0044 Z
    Strength   :     0.0011107593
    D(    4) --> V( 1611) amplitude = -0.2365
    D(    4) --> V( 1612) amplitude = -0.2474
    D(    4) --> V( 1613) amplitude =  0.2440
    D(    4) --> V( 1615) amplitude =  0.8212

 Excited state  64: excitation energy (eV) =    1046.0017
 Total energy for state  64:                  -649.84023287 au
    Multiplicity: Singlet
    Trans. Mom.:  0.0002 X   0.0003 Y  -0.0000 Z
    Strength   :     0.0000038516
    D(    4) --> V( 1597) amplitude =  0.9405

 Excited state  65: excitation energy (eV) =    1046.3408
 Total energy for state  65:                  -649.82777127 au
    Multiplicity: Singlet
    Trans. Mom.: -0.0005 X   0.0007 Y  -0.0000 Z
    Strength   :     0.0000186498
    D(    4) --> V( 1598) amplitude =  0.9372
    D(    4) --> V( 1599) amplitude = -0.2404

 Excited state  66: excitation energy (eV) =    1046.7110
 Total energy for state  66:                  -649.81416575 au
    Multiplicity: Singlet
    Trans. Mom.: -0.0001 X  -0.0000 Y  -0.0005 Z
    Strength   :     0.0000080601
    D(    4) --> V( 1599) amplitude =  0.7964
    D(    4) --> V( 1600) amplitude =  0.5757

 Excited state  67: excitation energy (eV) =    1047.0978
 Total energy for state  67:                  -649.79995280 au
    Multiplicity: Singlet
    Trans. Mom.:  0.0006 X   0.0001 Y   0.0004 Z
    Strength   :     0.0000123397
    D(    4) --> V( 1600) amplitude = -0.2724
    D(    4) --> V( 1601) amplitude =  0.9531

 Excited state  68: excitation energy (eV) =    1047.7897
 Total energy for state  68:                  -649.77452329 au
    Multiplicity: Singlet
    Trans. Mom.:  0.0002 X   0.0002 Y   0.0012 Z
    Strength   :     0.0000367200
    D(    4) --> V( 1602) amplitude =  0.9666

 Excited state  69: excitation energy (eV) =    1048.0760
 Total energy for state  69:                  -649.76400280 au
    Multiplicity: Singlet
    Trans. Mom.: -0.0005 X   0.0005 Y   0.0003 Z
    Strength   :     0.0000157041
    D(    4) --> V( 1603) amplitude =  0.9749

 Excited state  70: excitation energy (eV) =    1048.4140
 Total energy for state  70:                  -649.75158348 au
    Multiplicity: Singlet
    Trans. Mom.: -0.0005 X   0.0003 Y   0.0006 Z
    Strength   :     0.0000177921
    D(    4) --> V( 1604) amplitude =  0.7892
    D(    4) --> V( 1605) amplitude = -0.6106

 Excited state  71: excitation energy (eV) =    1048.8360
 Total energy for state  71:                  -649.73607332 au
    Multiplicity: Singlet
    Trans. Mom.:  0.0000 X   0.0003 Y   0.0015 Z
    Strength   :     0.0000571770
    D(    4) --> V( 1605) amplitude = -0.2622
    D(    4) --> V( 1606) amplitude =  0.9415

 Excited state  72: excitation energy (eV) =    1049.0830
 Total energy for state  72:                  -649.72699860 au
    Multiplicity: Singlet
    Trans. Mom.:  0.0007 X   0.0020 Y   0.0012 Z
    Strength   :     0.0001547936
    D(    4) --> V( 1607) amplitude =  0.3964
    D(    4) --> V( 1608) amplitude =  0.8850

 Excited state  73: excitation energy (eV) =    1049.7433
 Total energy for state  73:                  -649.70273246 au
    Multiplicity: Singlet
    Trans. Mom.:  0.0003 X  -0.0003 Y   0.0007 Z
    Strength   :     0.0000187971
    D(    4) --> V( 1607) amplitude =  0.9094
    D(    4) --> V( 1608) amplitude = -0.4024

 Excited state  74: excitation energy (eV) =    1050.0492
 Total energy for state  74:                  -649.69148920 au
    Multiplicity: Singlet
    Trans. Mom.: -0.0006 X  -0.0003 Y  -0.0051 Z
    Strength   :     0.0006833141
    D(    4) --> V( 1609) amplitude =  0.8714
    D(    4) --> V( 1625) amplitude =  0.3129
    D(    4) --> V( 1626) amplitude = -0.2780

 Excited state  75: excitation energy (eV) =    1050.3290
 Total energy for state  75:                  -649.68120675 au
    Multiplicity: Singlet
    Trans. Mom.: -0.0002 X   0.0019 Y   0.0085 Z
    Strength   :     0.0019557405
    D(    4) --> V( 1609) amplitude =  0.4596
    D(    4) --> V( 1610) amplitude =  0.2804
    D(    4) --> V( 1622) amplitude = -0.3756
    D(    4) --> V( 1625) amplitude = -0.4651
    D(    4) --> V( 1626) amplitude =  0.5135

 Excited state  76: excitation energy (eV) =    1050.6528
 Total energy for state  76:                  -649.66930862 au
    Multiplicity: Singlet
    Trans. Mom.: -0.0002 X  -0.0005 Y  -0.0025 Z
    Strength   :     0.0001707567
    D(    4) --> V( 1610) amplitude =  0.9522

 Excited state  77: excitation energy (eV) =    1051.2528
 Total energy for state  77:                  -649.64725696 au
    Multiplicity: Singlet
    Trans. Mom.: -0.0011 X   0.0021 Y   0.0003 Z
    Strength   :     0.0001453210
    D(    4) --> V( 1611) amplitude =  0.7793
    D(    4) --> V( 1612) amplitude =  0.4469
    D(    4) --> V( 1615) amplitude =  0.3123

 Excited state  78: excitation energy (eV) =    1051.3451
 Total energy for state  78:                  -649.64386735 au
    Multiplicity: Singlet
    Trans. Mom.: -0.0011 X   0.0019 Y   0.0002 Z
    Strength   :     0.0001234797
    D(    4) --> V( 1611) amplitude = -0.5604
    D(    4) --> V( 1612) amplitude =  0.7191
    D(    4) --> V( 1614) amplitude = -0.2955

 Excited state  79: excitation energy (eV) =    1051.4587
 Total energy for state  79:                  -649.63969136 au
    Multiplicity: Singlet
    Trans. Mom.:  0.0004 X  -0.0006 Y  -0.0008 Z
    Strength   :     0.0000319651
    D(    4) --> V( 1612) amplitude =  0.3848
    D(    4) --> V( 1613) amplitude =  0.4102
    D(    4) --> V( 1614) amplitude =  0.8021

 Excited state  80: excitation energy (eV) =    1051.6108
 Total energy for state  80:                  -649.63410133 au
    Multiplicity: Singlet
    Trans. Mom.: -0.0010 X   0.0016 Y  -0.0006 Z
    Strength   :     0.0001054313
    D(    4) --> V( 1613) amplitude =  0.8242
    D(    4) --> V( 1614) amplitude = -0.3654
    D(    4) --> V( 1615) amplitude = -0.2730

 Excited state  81: excitation energy (eV) =    1051.7339
 Total energy for state  81:                  -649.62957884 au
    Multiplicity: Singlet
    Trans. Mom.:  0.0032 X  -0.0053 Y   0.0008 Z
    Strength   :     0.0010121577
    D(    4) --> V( 1613) amplitude =  0.2307
    D(    4) --> V( 1614) amplitude = -0.3192
    D(    4) --> V( 1616) amplitude = -0.2276
    D(    4) --> V( 1618) amplitude =  0.6250
    D(    4) --> V( 1622) amplitude =  0.3484
    D(    4) --> V( 1625) amplitude = -0.3008
    D(    4) --> V( 1630) amplitude =  0.2233

 Excited state  82: excitation energy (eV) =    1052.0744
 Total energy for state  82:                  -649.61706354 au
    Multiplicity: Singlet
    Trans. Mom.:  0.0004 X  -0.0008 Y   0.0002 Z
    Strength   :     0.0000234619
    D(    4) --> V( 1616) amplitude =  0.9503

 Excited state  83: excitation energy (eV) =    1052.6799
 Total energy for state  83:                  -649.59481419 au
    Multiplicity: Singlet
    Trans. Mom.: -0.0005 X   0.0004 Y   0.0001 Z
    Strength   :     0.0000096410
    D(    4) --> V( 1617) amplitude =  0.9946

 Excited state  84: excitation energy (eV) =    1053.0703
 Total energy for state  84:                  -649.58046613 au
    Multiplicity: Singlet
    Trans. Mom.: -0.0013 X   0.0044 Y  -0.0015 Z
    Strength   :     0.0005948416
    D(    4) --> V( 1618) amplitude =  0.6686
    D(    4) --> V( 1622) amplitude = -0.5041
    D(    4) --> V( 1625) amplitude =  0.3702

 Excited state  85: excitation energy (eV) =    1053.3056
 Total energy for state  85:                  -649.57181780 au
    Multiplicity: Singlet
    Trans. Mom.: -0.0003 X   0.0001 Y  -0.0001 Z
    Strength   :     0.0000033580
    D(    4) --> V( 1619) amplitude =  0.9718
    D(    4) --> V( 1620) amplitude =  0.2237

 Excited state  86: excitation energy (eV) =    1053.3340
 Total energy for state  86:                  -649.57077679 au
    Multiplicity: Singlet
    Trans. Mom.: -0.0001 X   0.0006 Y  -0.0008 Z
    Strength   :     0.0000242771
    D(    4) --> V( 1619) amplitude = -0.2265
    D(    4) --> V( 1620) amplitude =  0.9420

 Excited state  87: excitation energy (eV) =    1054.0369
 Total energy for state  87:                  -649.54494366 au
    Multiplicity: Singlet
    Trans. Mom.: -0.0004 X   0.0003 Y   0.0002 Z
    Strength   :     0.0000076175
    D(    4) --> V( 1621) amplitude =  0.9816

 Excited state  88: excitation energy (eV) =    1054.4831
 Total energy for state  88:                  -649.52854766 au
    Multiplicity: Singlet
    Trans. Mom.:  0.0003 X   0.0003 Y  -0.0005 Z
    Strength   :     0.0000124198
    D(    4) --> V( 1623) amplitude =  0.9909

 Excited state  89: excitation energy (eV) =    1054.9855
 Total energy for state  89:                  -649.51008377 au
    Multiplicity: Singlet
    Trans. Mom.:  0.0004 X   0.0004 Y  -0.0004 Z
    Strength   :     0.0000130823
    D(    4) --> V( 1624) amplitude =  0.9694

 Excited state  90: excitation energy (eV) =    1055.4068
 Total energy for state  90:                  -649.49460016 au
    Multiplicity: Singlet
    Trans. Mom.: -0.0012 X  -0.0007 Y   0.0025 Z
    Strength   :     0.0002065521
    D(    4) --> V( 1622) amplitude =  0.5726
    D(    4) --> V( 1624) amplitude =  0.2167
    D(    4) --> V( 1625) amplitude =  0.2564
    D(    4) --> V( 1626) amplitude =  0.5654
    D(    4) --> V( 1630) amplitude = -0.3839

 Excited state  91: excitation energy (eV) =    1056.8562
 Total energy for state  91:                  -649.44133671 au
    Multiplicity: Singlet
    Trans. Mom.:  0.0018 X  -0.0027 Y   0.0014 Z
    Strength   :     0.0003226185
    D(    4) --> V( 1625) amplitude =  0.5030
    D(    4) --> V( 1626) amplitude =  0.4911
    D(    4) --> V( 1629) amplitude = -0.3213
    D(    4) --> V( 1630) amplitude =  0.5058
    D(    4) --> V( 1632) amplitude =  0.2725

 Excited state  92: excitation energy (eV) =    1057.9242
 Total energy for state  92:                  -649.40208923 au
    Multiplicity: Singlet
    Trans. Mom.:  0.0001 X   0.0003 Y  -0.0002 Z
    Strength   :     0.0000045856
    D(    4) --> V( 1627) amplitude =  0.9062
    D(    4) --> V( 1628) amplitude =  0.4059

 Excited state  93: excitation energy (eV) =    1058.0575
 Total energy for state  93:                  -649.39719025 au
    Multiplicity: Singlet
    Trans. Mom.: -0.0000 X   0.0000 Y  -0.0002 Z
    Strength   :     0.0000009968
    D(    4) --> V( 1627) amplitude = -0.4080
    D(    4) --> V( 1628) amplitude =  0.9071

 Excited state  94: excitation energy (eV) =    1058.1476
 Total energy for state  94:                  -649.39388081 au
    Multiplicity: Singlet
    Trans. Mom.: -0.0001 X   0.0005 Y   0.0000 Z
    Strength   :     0.0000055612
    D(    4) --> V( 1629) amplitude =  0.8801
    D(    4) --> V( 1630) amplitude =  0.4521

 Excited state  95: excitation energy (eV) =    1058.6503
 Total energy for state  95:                  -649.37540385 au
    Multiplicity: Singlet
    Trans. Mom.:  0.0000 X  -0.0017 Y   0.0003 Z
    Strength   :     0.0000768257
    D(    4) --> V( 1629) amplitude =  0.2336
    D(    4) --> V( 1630) amplitude = -0.4484
    D(    4) --> V( 1632) amplitude =  0.7831
    D(    4) --> V( 1633) amplitude = -0.2420

 Excited state  96: excitation energy (eV) =    1059.2059
 Total energy for state  96:                  -649.35498892 au
    Multiplicity: Singlet
    Trans. Mom.: -0.0008 X   0.0000 Y   0.0002 Z
    Strength   :     0.0000164760
    D(    4) --> V( 1631) amplitude =  0.6995
    D(    4) --> V( 1632) amplitude =  0.3807
    D(    4) --> V( 1633) amplitude =  0.5948

 Excited state  97: excitation energy (eV) =    1059.2703
 Total energy for state  97:                  -649.35262042 au
    Multiplicity: Singlet
    Trans. Mom.:  0.0005 X  -0.0001 Y   0.0000 Z
    Strength   :     0.0000073628
    D(    4) --> V( 1631) amplitude =  0.6914
    D(    4) --> V( 1633) amplitude = -0.6899

 Excited state  98: excitation energy (eV) =    1060.0448
 Total energy for state  98:                  -649.32415995 au
    Multiplicity: Singlet
    Trans. Mom.:  0.0001 X  -0.0013 Y  -0.0001 Z
    Strength   :     0.0000458280
    D(    4) --> V( 1634) amplitude =  0.9764

 Excited state  99: excitation energy (eV) =    1061.6233
 Total energy for state  99:                  -649.26614939 au
    Multiplicity: Singlet
    Trans. Mom.:  0.0001 X  -0.0002 Y  -0.0001 Z
    Strength   :     0.0000019228
    D(    4) --> V( 1635) amplitude =  0.9998

 Excited state 100: excitation energy (eV) =    1062.6751
 Total energy for state 100:                  -649.22749642 au
    Multiplicity: Singlet
    Trans. Mom.:  0.0001 X   0.0000 Y  -0.0000 Z
    Strength   :     0.0000004728
    D(    4) --> V( 1636) amplitude =  0.9999

 Excited state 101: excitation energy (eV) =    1066.9652
 Total energy for state 101:                  -649.06983855 au
    Multiplicity: Singlet
    Trans. Mom.: -0.0018 X  -0.0031 Y   0.0005 Z
    Strength   :     0.0003381907
    D(    4) --> V( 1637) amplitude =  0.9856

 Excited state 102: excitation energy (eV) =    1070.0648
 Total energy for state 102:                  -648.95592980 au
    Multiplicity: Singlet
    Trans. Mom.:  0.0024 X  -0.0052 Y   0.0019 Z
    Strength   :     0.0009668101
    D(    4) --> V( 1638) amplitude =  0.9929

 Excited state 103: excitation energy (eV) =    1074.1139
 Total energy for state 103:                  -648.80712759 au
    Multiplicity: Singlet
    Trans. Mom.: -0.0007 X  -0.0002 Y  -0.0000 Z
    Strength   :     0.0000150842
    D(    4) --> V( 1639) amplitude =  0.9999

 Excited state 104: excitation energy (eV) =    1075.8893
 Total energy for state 104:                  -648.74188205 au
    Multiplicity: Singlet
    Trans. Mom.:  0.0010 X  -0.0007 Y  -0.0001 Z
    Strength   :     0.0000379845
    D(    4) --> V( 1640) amplitude =  0.9990

 Excited state 105: excitation energy (eV) =    1079.4709
 Total energy for state 105:                  -648.61026144 au
    Multiplicity: Singlet
    Trans. Mom.: -0.0061 X   0.0011 Y  -0.0000 Z
    Strength   :     0.0010078287
    D(    4) --> V( 1641) amplitude =  0.9482
    D(    4) --> V( 1649) amplitude = -0.2904

 Excited state 106: excitation energy (eV) =    1080.0386
 Total energy for state 106:                  -648.58939883 au
    Multiplicity: Singlet
    Trans. Mom.:  0.0167 X  -0.0029 Y  -0.0001 Z
    Strength   :     0.0076223033
    D(    4) --> V( 1641) amplitude =  0.3176
    D(    4) --> V( 1649) amplitude =  0.8604
    D(    4) --> V( 1650) amplitude =  0.3003

 Excited state 107: excitation energy (eV) =    1081.6993
 Total energy for state 107:                  -648.52837005 au
    Multiplicity: Singlet
    Trans. Mom.: -0.0004 X   0.0003 Y   0.0001 Z
    Strength   :     0.0000061672
    D(    4) --> V( 1642) amplitude =  0.9997

 Excited state 108: excitation energy (eV) =    1081.9206
 Total energy for state 108:                  -648.52023684 au
    Multiplicity: Singlet
    Trans. Mom.: -0.0039 X   0.0150 Y  -0.0021 Z
    Strength   :     0.0064511649
    D(    4) --> V( 1647) amplitude =  0.4496
    D(    4) --> V( 1649) amplitude = -0.3838
    D(    4) --> V( 1650) amplitude =  0.7329

 Excited state 109: excitation energy (eV) =    1082.5964
 Total energy for state 109:                  -648.49540219 au
    Multiplicity: Singlet
    Trans. Mom.:  0.0008 X   0.0002 Y  -0.0001 Z
    Strength   :     0.0000177215
    D(    4) --> V( 1643) amplitude =  0.9962

 Excited state 110: excitation energy (eV) =    1083.1637
 Total energy for state 110:                  -648.47455528 au
    Multiplicity: Singlet
    Trans. Mom.:  0.0003 X   0.0009 Y  -0.0004 Z
    Strength   :     0.0000289602
    D(    4) --> V( 1644) amplitude =  0.9697
    D(    4) --> V( 1645) amplitude =  0.2190

 Excited state 111: excitation energy (eV) =    1083.3024
 Total energy for state 111:                  -648.46945795 au
    Multiplicity: Singlet
    Trans. Mom.: -0.0011 X  -0.0016 Y   0.0004 Z
    Strength   :     0.0001013348
    D(    4) --> V( 1645) amplitude =  0.9377
    D(    4) --> V( 1647) amplitude = -0.2392

 Excited state 112: excitation energy (eV) =    1083.7848
 Total energy for state 112:                  -648.45173093 au
    Multiplicity: Singlet
    Trans. Mom.: -0.0000 X   0.0001 Y  -0.0001 Z
    Strength   :     0.0000004582
    D(    4) --> V( 1646) amplitude =  0.9991

 Excited state 113: excitation energy (eV) =    1084.2289
 Total energy for state 113:                  -648.43540746 au
    Multiplicity: Singlet
    Trans. Mom.:  0.0002 X  -0.0058 Y   0.0006 Z
    Strength   :     0.0008934800
    D(    4) --> V( 1647) amplitude =  0.8426
    D(    4) --> V( 1650) amplitude = -0.4984

 Excited state 114: excitation energy (eV) =    1085.4772
 Total energy for state 114:                  -648.38953354 au
    Multiplicity: Singlet
    Trans. Mom.:  0.0000 X   0.0007 Y  -0.0002 Z
    Strength   :     0.0000131897
    D(    4) --> V( 1648) amplitude =  0.9955

 Excited state 115: excitation energy (eV) =    1089.0960
 Total energy for state 115:                  -648.25654744 au
    Multiplicity: Singlet
    Trans. Mom.:  0.0001 X   0.0001 Y   0.0001 Z
    Strength   :     0.0000006859
    D(    4) --> V( 1651) amplitude =  0.9959

 Excited state 116: excitation energy (eV) =    1089.8145
 Total energy for state 116:                  -648.23014359 au
    Multiplicity: Singlet
    Trans. Mom.: -0.0005 X  -0.0000 Y  -0.0005 Z
    Strength   :     0.0000147337
    D(    4) --> V( 1653) amplitude =  0.9815

 Excited state 117: excitation energy (eV) =    1090.0263
 Total energy for state 117:                  -648.22235801 au
    Multiplicity: Singlet
    Trans. Mom.:  0.0000 X   0.0001 Y   0.0000 Z
    Strength   :     0.0000001891
    D(    4) --> V( 1652) amplitude =  0.9954

 Excited state 118: excitation energy (eV) =    1090.5191
 Total energy for state 118:                  -648.20424753 au
    Multiplicity: Singlet
    Trans. Mom.:  0.0005 X   0.0011 Y   0.0003 Z
    Strength   :     0.0000413044
    D(    4) --> V( 1650) amplitude = -0.2160
    D(    4) --> V( 1654) amplitude =  0.9727

 Excited state 119: excitation energy (eV) =    1091.0854
 Total energy for state 119:                  -648.18343643 au
    Multiplicity: Singlet
    Trans. Mom.: -0.0001 X   0.0002 Y  -0.0000 Z
    Strength   :     0.0000013826
    D(    4) --> V( 1655) amplitude =  0.9996

 Excited state 120: excitation energy (eV) =    1093.0102
 Total energy for state 120:                  -648.11270100 au
    Multiplicity: Singlet
    Trans. Mom.:  0.0005 X   0.0004 Y   0.0003 Z
    Strength   :     0.0000135454
    D(    4) --> V( 1656) amplitude =  0.9964

 Excited state 121: excitation energy (eV) =    1113.1477
 Total energy for state 121:                  -647.37266249 au
    Multiplicity: Singlet
    Trans. Mom.:  0.0005 X   0.0001 Y   0.0002 Z
    Strength   :     0.0000073149
    D(    4) --> V( 1657) amplitude =  0.9996

 Excited state 122: excitation energy (eV) =    1113.5469
 Total energy for state 122:                  -647.35799358 au
    Multiplicity: Singlet
    Trans. Mom.: -0.0014 X  -0.0010 Y   0.0016 Z
    Strength   :     0.0001555277
    D(    4) --> V( 1658) amplitude =  0.9987

 Excited state 123: excitation energy (eV) =    1114.6952
 Total energy for state 123:                  -647.31579181 au
    Multiplicity: Singlet
    Trans. Mom.: -0.0002 X   0.0001 Y  -0.0002 Z
    Strength   :     0.0000022417
    D(    4) --> V( 1659) amplitude =  0.9997

 Excited state 124: excitation energy (eV) =    1115.7230
 Total energy for state 124:                  -647.27802408 au
    Multiplicity: Singlet
    Trans. Mom.: -0.0001 X   0.0001 Y   0.0003 Z
    Strength   :     0.0000030593
    D(    4) --> V( 1660) amplitude =  0.9983

 Excited state 125: excitation energy (eV) =    1116.0047
 Total energy for state 125:                  -647.26766972 au
    Multiplicity: Singlet
    Trans. Mom.:  0.0002 X   0.0000 Y  -0.0007 Z
    Strength   :     0.0000124582
    D(    4) --> V( 1661) amplitude =  0.9869

 Excited state 126: excitation energy (eV) =    1116.6499
 Total energy for state 126:                  -647.24396107 au
    Multiplicity: Singlet
    Trans. Mom.: -0.0008 X  -0.0006 Y   0.0012 Z
    Strength   :     0.0000642905
    D(    4) --> V( 1662) amplitude =  0.9814

 Excited state 127: excitation energy (eV) =    1116.8866
 Total energy for state 127:                  -647.23525906 au
    Multiplicity: Singlet
    Trans. Mom.: -0.0001 X  -0.0002 Y  -0.0001 Z
    Strength   :     0.0000016819
    D(    4) --> V( 1663) amplitude =  0.9993

 Excited state 128: excitation energy (eV) =    1117.2500
 Total energy for state 128:                  -647.22190768 au
    Multiplicity: Singlet
    Trans. Mom.:  0.0027 X   0.0029 Y  -0.0005 Z
    Strength   :     0.0004326962
    D(    4) --> V( 1664) amplitude =  0.7751
    D(    4) --> V( 1665) amplitude = -0.5483
    D(    4) --> V( 1666) amplitude =  0.2988

 Excited state 129: excitation energy (eV) =    1117.5712
 Total energy for state 129:                  -647.21010131 au
    Multiplicity: Singlet
    Trans. Mom.: -0.0014 X  -0.0012 Y   0.0009 Z
    Strength   :     0.0001144255
    D(    4) --> V( 1664) amplitude =  0.6216
    D(    4) --> V( 1665) amplitude =  0.7497
    D(    4) --> V( 1666) amplitude = -0.2169

 Excited state 130: excitation energy (eV) =    1118.1053
 Total energy for state 130:                  -647.19047543 au
    Multiplicity: Singlet
    Trans. Mom.:  0.0011 X   0.0010 Y  -0.0004 Z
    Strength   :     0.0000658908
    D(    4) --> V( 1665) amplitude =  0.3590
    D(    4) --> V( 1666) amplitude =  0.9268

 ---------------------------------------------------
  SETman timing summary (seconds)
  CPU time            427793.26s
  System time              0.04s
  Wall time           107199.57s
================================================================================
                             Excited State Analysis
================================================================================

  Ground State (Reference) :
  -------------------------
    NOs
      Occupation of frontier NOs:
         0.0000   0.0000   2.0000   2.0000
      Number of electrons: 90.000000
      Number of unpaired electrons: n_u = -0.00000, n_u,nl =  0.00000
    
    Mulliken Population Analysis (State DM)
    Atom      Charge (e)
    --------------------
     1 O       -0.813533
     2 H        0.384646
     3 H        0.406339
     4 O       -0.683123
     5 H        0.286559
     6 H        0.377131
     7 O       -0.585578
     8 H        0.294336
     9 H        0.311187
    10 O       -0.688662
    11 H        0.327557
    12 H        0.353683
    13 O       -0.598120
    14 H        0.339446
    15 H        0.238458
    16 O       -0.644947
    17 H        0.275960
    18 H        0.366608
    19 O       -0.595602
    20 H        0.304877
    21 H        0.306463
    22 O       -0.663333
    23 H        0.355812
    24 H        0.297632
    25 O       -0.628035
    26 H        0.332321
    27 H        0.341916
    --------------------
    Sum:       -0.000000
    
    Multipole moment analysis of the density matrix
      Molecular charge:                      -0.000000
      Number of electrons:                   90.000000
        Center of electronic charge [Ang]: [ -0.001827,   0.002798,   0.003121]
      Total nuclear charge:                  90.000000
        Center of nuclear charge [Ang]:    [ -0.011119,   0.001411,   0.017631]
      Dipole moment [D]:                     7.472519
        Cartesian components [D]:          [ -4.016663,  -0.599499,   6.272604]
      RMS size of the density [Ang]:         3.168845
        Cartesian components [Ang]:        [  1.949773,   1.541920,   1.965311]
    

  ----------------------------------------------------------------------------
                  Analysis of Unrelaxed Density Matrices
  ----------------------------------------------------------------------------

  Singlet 1 :
  -------------------------
    NOs
      Occupation of frontier NOs:
         0.0000   1.0000   1.0000   2.0000
      Number of electrons: 90.000000
      Number of unpaired electrons: n_u =  2.00000, n_u,nl =  2.00000
      NO participation ratio (PR_NO):  2.000000
    
    NDOs
      Leading detachment eigenvalues:
        -1.0000  -0.0000
      Leading attachment eigenvalues:
         1.0000   0.0000
      Number of detached / attached electrons: p_D =  1.0000, p_A =  1.0000
      Number of involved orbitals: PR_D =  1.000000, PR_A =  1.000000
    
    Mulliken Population Analysis (State/Difference DM)
    Atom      Charge (e)              h+              e-           Del q
    --------------------------------------------------------------------
     1 O       -0.357262        0.993227       -0.536955        0.456271
     2 H        0.314458        0.003466       -0.073653       -0.070188
     3 H        0.345151        0.003314       -0.064503       -0.061188
     4 O       -0.716848        0.000001       -0.033726       -0.033725
     5 H        0.282095       -0.000000       -0.004464       -0.004464
     6 H        0.369579       -0.000010       -0.007542       -0.007552
     7 O       -0.604538       -0.000000       -0.018959       -0.018960
     8 H        0.285763        0.000000       -0.008572       -0.008572
     9 H        0.304528       -0.000000       -0.006659       -0.006659
    10 O       -0.798856        0.000000       -0.110194       -0.110194
    11 H        0.307053        0.000000       -0.020504       -0.020504
    12 H        0.332798        0.000001       -0.020886       -0.020885
    13 O       -0.599993       -0.000000       -0.001874       -0.001874
    14 H        0.338302       -0.000000       -0.001145       -0.001145
    15 H        0.238144        0.000000       -0.000314       -0.000314
    16 O       -0.646986        0.000000       -0.002039       -0.002039
    17 H        0.275056        0.000000       -0.000904       -0.000904
    18 H        0.365859        0.000001       -0.000749       -0.000748
    19 O       -0.596597       -0.000000       -0.000995       -0.000995
    20 H        0.304853        0.000000       -0.000024       -0.000024
    21 H        0.306077       -0.000000       -0.000385       -0.000385
    22 O       -0.664737       -0.000000       -0.001404       -0.001404
    23 H        0.355365        0.000001       -0.000448       -0.000447
    24 H        0.297453       -0.000000       -0.000178       -0.000178
    25 O       -0.686162        0.000001       -0.058128       -0.058127
    26 H        0.319377       -0.000000       -0.012944       -0.012944
    27 H        0.330066        0.000000       -0.011850       -0.011850
    --------------------------------------------------------------------
    Sum:        0.000000        1.000000       -1.000000        0.000000
    
    Multipole moment analysis of the density matrix
      Molecular charge:                      0.000000
      Number of electrons:                   90.000000
        Center of electronic charge [Ang]: [ -0.002350,   0.000991,  -0.001009]
      Total nuclear charge:                  90.000000
        Center of nuclear charge [Ang]:    [ -0.011119,   0.001411,   0.017631]
      Dipole moment [D]:                     8.906931
        Cartesian components [D]:          [ -3.790791,   0.181588,   8.057937]
      RMS size of the density [Ang]:         3.174866
        Cartesian components [Ang]:        [  1.951586,   1.546110,   1.969932]
    
    Exciton analysis of the difference density matrix
      <r_h> [Ang]:                  [  0.618272,  -0.470250,   0.363858]
      <r_e> [Ang]:                  [  0.571247,  -0.632868,  -0.007838]
      |<r_e - r_h>| [Ang]:            0.408429
      Hole size [Ang]:                0.122774
        Cartesian components [Ang]: [  0.070889,   0.070887,   0.070874]
      Electron size [Ang]:            1.860334
        Cartesian components [Ang]: [  0.835511,   0.994798,   1.331594]

  Singlet 2 :
  -------------------------
    NOs
      Occupation of frontier NOs:
         0.0000   1.0000   1.0000   2.0000
      Number of electrons: 90.000000
      Number of unpaired electrons: n_u =  2.00000, n_u,nl =  2.00000
      NO participation ratio (PR_NO):  2.000000
    
    NDOs
      Leading detachment eigenvalues:
        -1.0000  -0.0000
      Leading attachment eigenvalues:
         1.0000   0.0000
      Number of detached / attached electrons: p_D =  1.0000, p_A =  1.0000
      Number of involved orbitals: PR_D =  1.000000, PR_A =  1.000000
    
    Mulliken Population Analysis (State/Difference DM)
    Atom      Charge (e)              h+              e-           Del q
    --------------------------------------------------------------------
     1 O       -0.498828        0.993227       -0.678521        0.314705
     2 H        0.344035        0.003466       -0.044077       -0.040611
     3 H        0.346689        0.003314       -0.062965       -0.059651
     4 O       -0.730537        0.000001       -0.047415       -0.047414
     5 H        0.283761       -0.000000       -0.002798       -0.002798
     6 H        0.364416       -0.000010       -0.012705       -0.012715
     7 O       -0.592076       -0.000000       -0.006498       -0.006498
     8 H        0.291956        0.000000       -0.002380       -0.002380
     9 H        0.309507       -0.000000       -0.001681       -0.001681
    10 O       -0.758391        0.000000       -0.069729       -0.069729
    11 H        0.317951        0.000000       -0.009606       -0.009606
    12 H        0.342815        0.000001       -0.010869       -0.010868
    13 O       -0.598378       -0.000000       -0.000258       -0.000258
    14 H        0.339405       -0.000000       -0.000041       -0.000041
    15 H        0.238446        0.000000       -0.000012       -0.000012
    16 O       -0.647417        0.000000       -0.002471       -0.002470
    17 H        0.275298        0.000000       -0.000662       -0.000662
    18 H        0.366033        0.000001       -0.000575       -0.000575
    19 O       -0.595716       -0.000000       -0.000114       -0.000114
    20 H        0.304832        0.000000       -0.000045       -0.000045
    21 H        0.306403       -0.000000       -0.000059       -0.000059
    22 O       -0.663998       -0.000000       -0.000665       -0.000665
    23 H        0.355418        0.000001       -0.000395       -0.000394
    24 H        0.297502       -0.000000       -0.000130       -0.000130
    25 O       -0.663876        0.000001       -0.035843       -0.035841
    26 H        0.330068       -0.000000       -0.002253       -0.002253
    27 H        0.334682        0.000000       -0.007235       -0.007235
    --------------------------------------------------------------------
    Sum:        0.000000        1.000000       -1.000000        0.000000
    
    Multipole moment analysis of the density matrix
      Molecular charge:                      0.000000
      Number of electrons:                   90.000000
        Center of electronic charge [Ang]: [ -0.001434,   0.002576,   0.000670]
      Total nuclear charge:                  90.000000
        Center of nuclear charge [Ang]:    [ -0.011119,   0.001411,   0.017631]
      Dipole moment [D]:                     8.458204
        Cartesian components [D]:          [ -4.186831,  -0.503586,   7.331989]
      RMS size of the density [Ang]:         3.172733
        Cartesian components [Ang]:        [  1.950937,   1.544862,   1.968117]
    
    Exciton analysis of the difference density matrix
      <r_h> [Ang]:                  [  0.618272,  -0.470250,   0.363858]
      <r_e> [Ang]:                  [  0.653700,  -0.490218,   0.143300]
      |<r_e - r_h>| [Ang]:            0.224276
      Hole size [Ang]:                0.122774
        Cartesian components [Ang]: [  0.070889,   0.070887,   0.070874]
      Electron size [Ang]:            1.510324
        Cartesian components [Ang]: [  0.607026,   0.896237,   1.053261]

  Singlet 3 :
  -------------------------
    NOs
      Occupation of frontier NOs:
         0.0000   1.0000   1.0000   2.0000
      Number of electrons: 90.000000
      Number of unpaired electrons: n_u =  2.00000, n_u,nl =  2.00000
      NO participation ratio (PR_NO):  2.000000
    
    NDOs
      Leading detachment eigenvalues:
        -1.0000  -0.0000
      Leading attachment eigenvalues:
         1.0000   0.0000
      Number of detached / attached electrons: p_D =  1.0000, p_A =  1.0000
      Number of involved orbitals: PR_D =  1.000000, PR_A =  1.000000
    
    Mulliken Population Analysis (State/Difference DM)
    Atom      Charge (e)              h+              e-           Del q
    --------------------------------------------------------------------
     1 O        0.150170        0.993227       -0.029523        0.963704
     2 H        0.383934        0.003466       -0.004177       -0.000712
     3 H        0.404138        0.003314       -0.005516       -0.002201
     4 O       -0.685274        0.000001       -0.002152       -0.002151
     5 H        0.286263       -0.000000       -0.000296       -0.000297
     6 H        0.375253       -0.000010       -0.001868       -0.001878
     7 O       -1.322279       -0.000000       -0.736701       -0.736701
     8 H        0.276147        0.000000       -0.018189       -0.018189
     9 H        0.294954       -0.000000       -0.016234       -0.016234
    10 O       -0.692354        0.000000       -0.003692       -0.003692
    11 H        0.327408        0.000000       -0.000150       -0.000150
    12 H        0.353476        0.000001       -0.000208       -0.000207
    13 O       -0.598621       -0.000000       -0.000501       -0.000501
    14 H        0.339243       -0.000000       -0.000203       -0.000203
    15 H        0.238438        0.000000       -0.000020       -0.000020
    16 O       -0.660761        0.000000       -0.015814       -0.015814
    17 H        0.267183        0.000000       -0.008777       -0.008777
    18 H        0.355673        0.000001       -0.010935       -0.010935
    19 O       -0.595868       -0.000000       -0.000266       -0.000266
    20 H        0.304867        0.000000       -0.000010       -0.000010
    21 H        0.306425       -0.000000       -0.000038       -0.000038
    22 O       -0.764861       -0.000000       -0.101528       -0.101528
    23 H        0.337163        0.000001       -0.018650       -0.018649
    24 H        0.282618       -0.000000       -0.015013       -0.015013
    25 O       -0.636815        0.000001       -0.008782       -0.008781
    26 H        0.331958       -0.000000       -0.000363       -0.000363
    27 H        0.341523        0.000000       -0.000394       -0.000394
    --------------------------------------------------------------------
    Sum:        0.000000        1.000000       -1.000000        0.000000
    
    Multipole moment analysis of the density matrix
      Molecular charge:                      0.000000
      Number of electrons:                   90.000000
        Center of electronic charge [Ang]: [ -0.025957,   0.006231,   0.022296]
      Total nuclear charge:                  90.000000
        Center of nuclear charge [Ang]:    [ -0.011119,   0.001411,   0.017631]
      Dipole moment [D]:                     7.039425
        Cartesian components [D]:          [  6.414439,  -2.083742,  -2.016554]
      RMS size of the density [Ang]:         3.184976
        Cartesian components [Ang]:        [  1.960300,   1.543027,   1.979991]
    
    Exciton analysis of the difference density matrix
      <r_h> [Ang]:                  [  0.618272,  -0.470250,   0.363858]
      <r_e> [Ang]:                  [ -1.553424,  -0.161239,   2.089614]
      |<r_e - r_h>| [Ang]:            2.791055
      Hole size [Ang]:                0.122774
        Cartesian components [Ang]: [  0.070889,   0.070887,   0.070874]
      Electron size [Ang]:            1.810261
        Cartesian components [Ang]: [  1.318775,   0.714400,   1.013661]

  Singlet 4 :
  -------------------------
    NOs
      Occupation of frontier NOs:
         0.0000   1.0000   1.0000   2.0000
      Number of electrons: 90.000000
      Number of unpaired electrons: n_u =  2.00000, n_u,nl =  2.00000
      NO participation ratio (PR_NO):  2.000000
    
    NDOs
      Leading detachment eigenvalues:
        -1.0000  -0.0000
      Leading attachment eigenvalues:
         1.0000   0.0000
      Number of detached / attached electrons: p_D =  1.0000, p_A =  1.0000
      Number of involved orbitals: PR_D =  1.000000, PR_A =  1.000000
    
    Mulliken Population Analysis (State/Difference DM)
    Atom      Charge (e)              h+              e-           Del q
    --------------------------------------------------------------------
     1 O        0.151728        0.993227       -0.027965        0.965261
     2 H        0.383991        0.003466       -0.004121       -0.000655
     3 H        0.408648        0.003314       -0.001005        0.002309
     4 O       -0.684414        0.000001       -0.001292       -0.001291
     5 H        0.286286       -0.000000       -0.000273       -0.000274
     6 H        0.374787       -0.000010       -0.002335       -0.002345
     7 O       -0.591441       -0.000000       -0.005863       -0.005863
     8 H        0.294007        0.000000       -0.000329       -0.000329
     9 H        0.311025       -0.000000       -0.000162       -0.000162
    10 O       -1.584816        0.000000       -0.896155       -0.896154
    11 H        0.320779        0.000000       -0.006778       -0.006778
    12 H        0.347827        0.000001       -0.005858       -0.005857
    13 O       -0.600175       -0.000000       -0.002056       -0.002056
    14 H        0.338338       -0.000000       -0.001108       -0.001108
    15 H        0.238073        0.000000       -0.000385       -0.000385
    16 O       -0.660618        0.000000       -0.015671       -0.015671
    17 H        0.265842        0.000000       -0.010118       -0.010118
    18 H        0.357630        0.000001       -0.008978       -0.008978
    19 O       -0.600244       -0.000000       -0.004641       -0.004641
    20 H        0.304730        0.000000       -0.000147       -0.000147
    21 H        0.306067       -0.000000       -0.000395       -0.000395
    22 O       -0.664340       -0.000000       -0.001007       -0.001007
    23 H        0.355409        0.000001       -0.000404       -0.000403
    24 H        0.297322       -0.000000       -0.000309       -0.000309
    25 O       -0.630149        0.000001       -0.002115       -0.002114
    26 H        0.332195       -0.000000       -0.000126       -0.000126
    27 H        0.341513        0.000000       -0.000403       -0.000403
    --------------------------------------------------------------------
    Sum:       -0.000000        1.000000       -1.000000       -0.000000
    
    Multipole moment analysis of the density matrix
      Molecular charge:                      -0.000000
      Number of electrons:                   90.000000
        Center of electronic charge [Ang]: [ -0.003691,   0.001082,  -0.030950]
      Total nuclear charge:                  90.000000
        Center of nuclear charge [Ang]:    [ -0.011119,   0.001411,   0.017631]
      Dipole moment [D]:                     21.245713
        Cartesian components [D]:          [ -3.211072,   0.142186,  21.001170]
      RMS size of the density [Ang]:         3.183860
        Cartesian components [Ang]:        [  1.950563,   1.543348,   1.987547]
    
    Exciton analysis of the difference density matrix
      <r_h> [Ang]:                  [  0.618272,  -0.470250,   0.363858]
      <r_e> [Ang]:                  [  0.450553,  -0.624664,  -2.702546]
      |<r_e - r_h>| [Ang]:            3.074867
      Hole size [Ang]:                0.122774
        Cartesian components [Ang]: [  0.070889,   0.070887,   0.070874]
      Electron size [Ang]:            1.234730
        Cartesian components [Ang]: [  0.680230,   0.481656,   0.910964]

  Singlet 5 :
  -------------------------
    NOs
      Occupation of frontier NOs:
         0.0000   1.0000   1.0000   2.0000
      Number of electrons: 90.000000
      Number of unpaired electrons: n_u =  2.00000, n_u,nl =  2.00000
      NO participation ratio (PR_NO):  2.000000
    
    NDOs
      Leading detachment eigenvalues:
        -1.0000  -0.0000
      Leading attachment eigenvalues:
         1.0000   0.0000
      Number of detached / attached electrons: p_D =  1.0000, p_A =  1.0000
      Number of involved orbitals: PR_D =  1.000000, PR_A =  1.000000
    
    Mulliken Population Analysis (State/Difference DM)
    Atom      Charge (e)              h+              e-           Del q
    --------------------------------------------------------------------
     1 O       -0.009478        0.993227       -0.189171        0.804055
     2 H        0.364928        0.003466       -0.023183       -0.019717
     3 H        0.399963        0.003314       -0.009691       -0.006377
     4 O       -0.723076        0.000001       -0.039954       -0.039953
     5 H        0.278280       -0.000000       -0.008279       -0.008279
     6 H        0.356950       -0.000010       -0.020171       -0.020182
     7 O       -0.645316       -0.000000       -0.059738       -0.059738
     8 H        0.291866        0.000000       -0.002470       -0.002470
     9 H        0.309774       -0.000000       -0.001414       -0.001414
    10 O       -0.754067        0.000000       -0.065406       -0.065405
    11 H        0.326258        0.000000       -0.001299       -0.001299
    12 H        0.352004        0.000001       -0.001681       -0.001680
    13 O       -0.598302       -0.000000       -0.000183       -0.000183
    14 H        0.339347       -0.000000       -0.000099       -0.000100
    15 H        0.238380        0.000000       -0.000078       -0.000078
    16 O       -0.889696        0.000000       -0.244749       -0.244749
    17 H        0.148100        0.000000       -0.127860       -0.127860
    18 H        0.208291        0.000001       -0.158317       -0.158316
    19 O       -0.597952       -0.000000       -0.002349       -0.002349
    20 H        0.304771        0.000000       -0.000106       -0.000106
    21 H        0.306319       -0.000000       -0.000143       -0.000143
    22 O       -0.671363       -0.000000       -0.008030       -0.008030
    23 H        0.352251        0.000001       -0.003562       -0.003561
    24 H        0.295827       -0.000000       -0.001805       -0.001805
    25 O       -0.656063        0.000001       -0.028029       -0.028028
    26 H        0.331020       -0.000000       -0.001301       -0.001301
    27 H        0.340984        0.000000       -0.000932       -0.000932
    --------------------------------------------------------------------
    Sum:       -0.000000        1.000000       -1.000000       -0.000000
    
    Multipole moment analysis of the density matrix
      Molecular charge:                      -0.000000
      Number of electrons:                   90.000000
        Center of electronic charge [Ang]: [  0.011208,   0.008677,  -0.007912]
      Total nuclear charge:                  90.000000
        Center of nuclear charge [Ang]:    [ -0.011119,   0.001411,   0.017631]
      Dipole moment [D]:                     14.998405
        Cartesian components [D]:          [ -9.651828,  -3.140958,  11.042135]
      RMS size of the density [Ang]:         3.183435
        Cartesian components [Ang]:        [  1.965336,   1.544266,   1.971538]
    
    Exciton analysis of the difference density matrix
      <r_h> [Ang]:                  [  0.618272,  -0.470250,   0.363858]
      <r_e> [Ang]:                  [  1.791482,   0.058868,  -0.629131]
[...]
1339  H 13  f 3     -0.00084  -0.00296
1340  H 13  f 4      0.00220   0.00204
1341  H 13  f 5      0.00048   0.00187
1342  H 13  f 6      0.00082   0.00076
1343  H 13  f 7      0.00313   0.00612
1344  H 13  g 1     -0.00019  -0.00032
1345  H 13  g 2      0.00013   0.00007
1346  H 13  g 3     -0.00004  -0.00018
1347  H 13  g 4     -0.00018  -0.00016
1348  H 13  g 5     -0.00002  -0.00011
1349  H 13  g 6      0.00016   0.00012
1350  H 13  g 7     -0.00004  -0.00010
1351  H 13  g 8      0.00020   0.00018
1352  H 13  g 9      0.00016   0.00026
1353  H 14  s        0.00035   0.00217
1354  H 14  s       -0.00626   0.00250
1355  H 14  s        0.08256   0.05061
1356  H 14  s        0.15634  -0.06898
1357  H 14  s        0.50485   0.39558
1358  H 14  px       0.00040   0.00052
1359  H 14  py       0.00050   0.00042
1360  H 14  pz       0.00044   0.00101
1361  H 14  px       0.00050  -0.00001
1362  H 14  py      -0.00103  -0.00147
1363  H 14  pz       0.00109  -0.00178
1364  H 14  px      -0.02065  -0.00045
1365  H 14  py      -0.00356   0.00672
1366  H 14  pz      -0.01443   0.01171
1367  H 14  px      -0.03874   0.01644
1368  H 14  py      -0.06332  -0.00237
1369  H 14  pz      -0.02107   0.01602
1370  H 14  d 1     -0.00003  -0.00009
1371  H 14  d 2     -0.00013   0.00015
1372  H 14  d 3     -0.00011  -0.00011
1373  H 14  d 4     -0.00021   0.00005
1374  H 14  d 5     -0.00034  -0.00022
1375  H 14  d 1      0.00113   0.00078
1376  H 14  d 2      0.00121  -0.00040
1377  H 14  d 3      0.00051   0.00034
1378  H 14  d 4      0.00345   0.00064
1379  H 14  d 5      0.00280   0.00146
1380  H 14  d 1      0.01249  -0.00257
1381  H 14  d 2      0.00878  -0.00283
1382  H 14  d 3     -0.00612  -0.00827
1383  H 14  d 4      0.01281  -0.00332
1384  H 14  d 5      0.00273  -0.00168
1385  H 14  f 1      0.00005  -0.00006
1386  H 14  f 2      0.00005  -0.00005
1387  H 14  f 3      0.00001  -0.00007
1388  H 14  f 4      0.00002   0.00005
1389  H 14  f 5     -0.00023  -0.00021
1390  H 14  f 6     -0.00020  -0.00025
1391  H 14  f 7     -0.00011  -0.00002
1392  H 14  f 1     -0.00207  -0.00011
1393  H 14  f 2     -0.00307   0.00033
1394  H 14  f 3     -0.00071   0.00089
1395  H 14  f 4      0.00235   0.00066
1396  H 14  f 5     -0.00044   0.00144
1397  H 14  f 6     -0.00133   0.00041
1398  H 14  f 7      0.00009  -0.00017
1399  H 14  g 1      0.00008   0.00002
1400  H 14  g 2      0.00020   0.00004
1401  H 14  g 3      0.00013  -0.00004
1402  H 14  g 4     -0.00006  -0.00006
1403  H 14  g 5     -0.00019  -0.00003
1404  H 14  g 6     -0.00010  -0.00009
1405  H 14  g 7      0.00008   0.00002
1406  H 14  g 8      0.00002   0.00003
1407  H 14  g 9     -0.00003  -0.00000
1408  O 8   s        0.00167  -0.00196
1409  O 8   s       -0.05577   0.04818
1410  O 8   s       -0.00153   0.00051
1411  O 8   s       -0.05659   0.05322
1412  O 8   s       -0.10275   0.04002
1413  O 8   s       -0.43669   0.36320
1414  O 8   px      -0.01867   0.02740
1415  O 8   py       0.01376  -0.01695
1416  O 8   pz      -0.00404   0.01888
1417  O 8   px      -0.02839   0.04549
1418  O 8   py       0.02041  -0.02599
1419  O 8   pz      -0.00550   0.03070
1420  O 8   px      -0.05173   0.05847
1421  O 8   py       0.03418  -0.04015
1422  O 8   pz      -0.01336   0.04410
1423  O 8   px      -0.08183  -0.01394
1424  O 8   py       0.11554  -0.16460
1425  O 8   pz      -0.00179  -0.01618
1426  O 8   px      -0.14756   0.18521
1427  O 8   py       0.00789   0.07143
1428  O 8   pz      -0.10456   0.13820
1429  O 8   d 1      0.00001   0.00003
1430  O 8   d 2     -0.00016   0.00015
1431  O 8   d 3      0.00013  -0.00034
1432  O 8   d 4     -0.00021   0.00035
1433  O 8   d 5      0.00006  -0.00026
1434  O 8   d 1      0.00038  -0.00084
1435  O 8   d 2      0.00069  -0.00148
1436  O 8   d 3     -0.00057   0.00177
1437  O 8   d 4      0.00206  -0.00246
1438  O 8   d 5      0.00023   0.00085
1439  O 8   d 1      0.00339   0.00322
1440  O 8   d 2     -0.00279   0.00560
1441  O 8   d 3      0.00461  -0.00738
1442  O 8   d 4     -0.00914   0.00716
1443  O 8   d 5     -0.00090  -0.00985
1444  O 8   d 1      0.02961  -0.01464
1445  O 8   d 2      0.00490  -0.00778
1446  O 8   d 3      0.01633  -0.00393
1447  O 8   d 4     -0.02358   0.01522
1448  O 8   d 5     -0.00366  -0.01466
1449  O 8   f 1     -0.00013   0.00015
1450  O 8   f 2     -0.00014   0.00024
1451  O 8   f 3     -0.00005   0.00005
1452  O 8   f 4      0.00006  -0.00026
1453  O 8   f 5     -0.00001   0.00004
1454  O 8   f 6      0.00004   0.00004
1455  O 8   f 7      0.00013  -0.00012
1456  O 8   f 1      0.00065  -0.00041
1457  O 8   f 2      0.00086  -0.00121
1458  O 8   f 3      0.00015  -0.00001
1459  O 8   f 4     -0.00008   0.00118
1460  O 8   f 5      0.00011  -0.00003
1461  O 8   f 6     -0.00068   0.00017
1462  O 8   f 7     -0.00070   0.00070
1463  O 8   f 1      0.00820  -0.01101
1464  O 8   f 2      0.01423  -0.02020
1465  O 8   f 3     -0.00144   0.00160
1466  O 8   f 4      0.00377  -0.00206
1467  O 8   f 5      0.00290  -0.00080
1468  O 8   f 6     -0.00899   0.00384
1469  O 8   f 7     -0.00309  -0.00091
1470  O 8   g 1     -0.00001  -0.00003
1471  O 8   g 2     -0.00003   0.00007
1472  O 8   g 3      0.00006  -0.00006
1473  O 8   g 4      0.00004  -0.00010
1474  O 8   g 5      0.00003   0.00001
1475  O 8   g 6     -0.00007   0.00007
1476  O 8   g 7     -0.00003   0.00002
1477  O 8   g 8     -0.00013   0.00024
1478  O 8   g 9     -0.00012   0.00026
1479  O 8   g 1      0.00196  -0.00194
1480  O 8   g 2      0.00218  -0.00243
1481  O 8   g 3     -0.00019   0.00004
1482  O 8   g 4     -0.00002   0.00021
1483  O 8   g 5      0.00038  -0.00059
1484  O 8   g 6      0.00183  -0.00170
1485  O 8   g 7      0.00016  -0.00021
1486  O 8   g 8      0.00120  -0.00297
1487  O 8   g 9      0.00079  -0.00254
1488  O 8   h 1      0.00012  -0.00004
1489  O 8   h 2      0.00013  -0.00017
1490  O 8   h 3      0.00010  -0.00015
1491  O 8   h 4     -0.00026   0.00031
1492  O 8   h 5     -0.00016   0.00022
1493  O 8   h 6     -0.00004   0.00006
1494  O 8   h 7      0.00008  -0.00007
1495  O 8   h 8      0.00022  -0.00016
1496  O 8   h 9     -0.00006   0.00003
1497  O 8   h10      0.00008  -0.00023
1498  O 8   h11      0.00020  -0.00034
1499  H 15  s        0.00310  -0.00274
1500  H 15  s        0.00461  -0.00291
1501  H 15  s        0.09829  -0.13717
1502  H 15  s       -0.05519  -0.00186
1503  H 15  s        0.06600   0.23644
1504  H 15  px      -0.00059   0.00027
1505  H 15  py      -0.00100   0.00068
1506  H 15  pz      -0.00024   0.00013
1507  H 15  px       0.00085   0.00011
1508  H 15  py       0.00229  -0.00204
1509  H 15  pz      -0.00010   0.00058
1510  H 15  px      -0.00422  -0.00355
1511  H 15  py       0.00562  -0.03059
1512  H 15  pz       0.00005  -0.00872
1513  H 15  px       0.05289  -0.01878
1514  H 15  py       0.00436  -0.03044
1515  H 15  pz       0.00347  -0.00905
1516  H 15  d 1     -0.00008   0.00040
1517  H 15  d 2     -0.00013   0.00002
1518  H 15  d 3      0.00025  -0.00007
1519  H 15  d 4     -0.00019  -0.00014
1520  H 15  d 5     -0.00025   0.00023
1521  H 15  d 1      0.00098  -0.00334
1522  H 15  d 2      0.00152  -0.00234
1523  H 15  d 3     -0.00230   0.00308
1524  H 15  d 4      0.00081   0.00063
1525  H 15  d 5     -0.00138   0.00404
1526  H 15  d 1     -0.00657   0.01541
1527  H 15  d 2     -0.01118   0.00602
1528  H 15  d 3      0.00136   0.00225
1529  H 15  d 4     -0.00281  -0.00037
1530  H 15  d 5      0.00166   0.00685
1531  H 15  f 1     -0.00037   0.00044
1532  H 15  f 2      0.00006  -0.00016
1533  H 15  f 3     -0.00003   0.00016
1534  H 15  f 4     -0.00018   0.00036
1535  H 15  f 5     -0.00003   0.00015
1536  H 15  f 6     -0.00045   0.00062
1537  H 15  f 7     -0.00041   0.00078
1538  H 15  f 1      0.00079   0.00158
1539  H 15  f 2     -0.00089   0.00161
1540  H 15  f 3     -0.00117   0.00133
1541  H 15  f 4      0.00067  -0.00060
1542  H 15  f 5     -0.00015  -0.00051
1543  H 15  f 6      0.00280  -0.00195
1544  H 15  f 7      0.00188  -0.00328
1545  H 15  g 1     -0.00003   0.00005
1546  H 15  g 2      0.00005   0.00007
1547  H 15  g 3     -0.00008   0.00007
1548  H 15  g 4      0.00002   0.00004
1549  H 15  g 5      0.00005  -0.00002
1550  H 15  g 6      0.00004  -0.00007
1551  H 15  g 7      0.00007  -0.00006
1552  H 15  g 8      0.00013  -0.00017
1553  H 15  g 9      0.00006  -0.00023
1554  H 16  s        0.00551  -0.00637
1555  H 16  s        0.00195  -0.00662
1556  H 16  s        0.19638  -0.15345
1557  H 16  s       -0.05146   0.25989
1558  H 16  s        0.78795  -1.20878
1559  H 16  px       0.00204  -0.00272
1560  H 16  py      -0.00095   0.00140
1561  H 16  pz       0.00100  -0.00136
1562  H 16  px      -0.00308   0.00458
1563  H 16  py       0.00280  -0.00507
1564  H 16  pz      -0.00051   0.00217
1565  H 16  px      -0.01191  -0.01732
1566  H 16  py      -0.01016   0.03793
1567  H 16  pz      -0.01202  -0.00854
1568  H 16  px       0.00232  -0.06374
1569  H 16  py      -0.00557   0.03990
1570  H 16  pz       0.00748  -0.05406
1571  H 16  d 1     -0.00003   0.00033
1572  H 16  d 2     -0.00005   0.00014
1573  H 16  d 3      0.00002   0.00012
1574  H 16  d 4     -0.00064   0.00047
1575  H 16  d 5     -0.00036   0.00064
1576  H 16  d 1     -0.00108  -0.00253
1577  H 16  d 2     -0.00048  -0.00121
1578  H 16  d 3     -0.00074  -0.00049
1579  H 16  d 4      0.00600  -0.00397
1580  H 16  d 5      0.00417  -0.00468
1581  H 16  d 1      0.01133  -0.02776
1582  H 16  d 2      0.00426  -0.01673
1583  H 16  d 3      0.00463  -0.00425
1584  H 16  d 4     -0.00522   0.01788
1585  H 16  d 5     -0.00157   0.00429
1586  H 16  f 1      0.00037  -0.00011
1587  H 16  f 2      0.00027  -0.00008
1588  H 16  f 3     -0.00003   0.00005
1589  H 16  f 4      0.00056  -0.00051
1590  H 16  f 5     -0.00011   0.00011
1591  H 16  f 6     -0.00058   0.00058
1592  H 16  f 7     -0.00022   0.00013
1593  H 16  f 1     -0.00204   0.00453
1594  H 16  f 2     -0.00136   0.00468
1595  H 16  f 3      0.00054  -0.00030
1596  H 16  f 4     -0.00140   0.00301
1597  H 16  f 5     -0.00061   0.00000
1598  H 16  f 6      0.00021  -0.00082
1599  H 16  f 7     -0.00099   0.00303
1600  H 16  g 1      0.00003  -0.00021
1601  H 16  g 2      0.00001  -0.00029
1602  H 16  g 3     -0.00004  -0.00008
1603  H 16  g 4     -0.00000   0.00007
1604  H 16  g 5     -0.00006  -0.00002
1605  H 16  g 6     -0.00002  -0.00004
1606  H 16  g 7      0.00007  -0.00004
1607  H 16  g 8      0.00014  -0.00029
1608  H 16  g 9      0.00011  -0.00031
1609  O 9   s       -0.00028   0.00015
1610  O 9   s        0.02219  -0.00946
1611  O 9   s        0.00070   0.00023
1612  O 9   s        0.03477  -0.02869
1613  O 9   s       -0.05212   0.11165
1614  O 9   s       -0.33017   0.27677
1615  O 9   px       0.01246   0.00039
1616  O 9   py      -0.00721   0.00604
1617  O 9   pz      -0.00493   0.00733
1618  O 9   px       0.02169  -0.00070
1619  O 9   py      -0.01188   0.01000
1620  O 9   pz      -0.00835   0.01319
1621  O 9   px       0.02088   0.00973
1622  O 9   py      -0.01498   0.01015
1623  O 9   pz      -0.00736   0.00775
1624  O 9   px      -0.01825   0.03898
1625  O 9   py       0.04020  -0.08009
1626  O 9   pz       0.06543  -0.07112
1627  O 9   px      -0.01550   0.03007
1628  O 9   py      -0.07139  -0.00867
1629  O 9   pz       0.09589  -0.01741
1630  O 9   d 1     -0.00002   0.00002
1631  O 9   d 2     -0.00012   0.00008
1632  O 9   d 3     -0.00007   0.00005
1633  O 9   d 4     -0.00000   0.00004
1634  O 9   d 5     -0.00006  -0.00006
1635  O 9   d 1     -0.00045  -0.00013
1636  O 9   d 2      0.00046  -0.00081
1637  O 9   d 3      0.00015  -0.00047
1638  O 9   d 4     -0.00060  -0.00027
1639  O 9   d 5      0.00033   0.00038
1640  O 9   d 1     -0.00044   0.00066
1641  O 9   d 2     -0.00528   0.01018
1642  O 9   d 3     -0.00179   0.00336
1643  O 9   d 4      0.00017   0.00223
1644  O 9   d 5     -0.00243  -0.00266
1645  O 9   d 1      0.00189   0.00461
1646  O 9   d 2     -0.01957   0.04697
1647  O 9   d 3     -0.01303   0.02213
1648  O 9   d 4      0.00660   0.00019
1649  O 9   d 5      0.01366  -0.00963
1650  O 9   f 1      0.00000  -0.00004
1651  O 9   f 2     -0.00000  -0.00005
1652  O 9   f 3      0.00005   0.00004
1653  O 9   f 4     -0.00001  -0.00000
1654  O 9   f 5     -0.00005   0.00004
1655  O 9   f 6     -0.00001  -0.00011
1656  O 9   f 7      0.00003  -0.00010
1657  O 9   f 1     -0.00020   0.00044
1658  O 9   f 2     -0.00001   0.00058
1659  O 9   f 3     -0.00024  -0.00049
1660  O 9   f 4      0.00027  -0.00016
1661  O 9   f 5      0.00024  -0.00006
1662  O 9   f 6     -0.00000   0.00100
1663  O 9   f 7     -0.00025   0.00056
1664  O 9   f 1     -0.00023   0.00497
1665  O 9   f 2     -0.00153   0.00313
1666  O 9   f 3      0.00268  -0.00539
1667  O 9   f 4      0.00025  -0.00307
1668  O 9   f 5     -0.00240   0.00262
1669  O 9   f 6     -0.00122   0.00621
1670  O 9   f 7      0.00131  -0.00324
1671  O 9   g 1      0.00001   0.00005
1672  O 9   g 2     -0.00006   0.00004
1673  O 9   g 3     -0.00004   0.00001
1674  O 9   g 4      0.00002  -0.00001
1675  O 9   g 5     -0.00002   0.00003
1676  O 9   g 6      0.00001  -0.00002
1677  O 9   g 7     -0.00001   0.00005
1678  O 9   g 8      0.00002  -0.00001
1679  O 9   g 9     -0.00002   0.00002
1680  O 9   g 1      0.00003   0.00016
1681  O 9   g 2      0.00021  -0.00010
1682  O 9   g 3     -0.00017   0.00016
1683  O 9   g 4      0.00005   0.00011
1684  O 9   g 5     -0.00008  -0.00034
1685  O 9   g 6     -0.00005  -0.00028
1686  O 9   g 7     -0.00025  -0.00048
1687  O 9   g 8      0.00012   0.00021
1688  O 9   g 9      0.00008   0.00003
1689  O 9   h 1      0.00004   0.00002
1690  O 9   h 2     -0.00001   0.00009
1691  O 9   h 3      0.00001   0.00007
1692  O 9   h 4      0.00005  -0.00006
1693  O 9   h 5     -0.00000  -0.00005
1694  O 9   h 6      0.00007   0.00001
1695  O 9   h 7     -0.00000  -0.00001
1696  O 9   h 8      0.00005  -0.00000
1697  O 9   h 9     -0.00009   0.00008
1698  O 9   h10     -0.00000  -0.00005
1699  O 9   h11     -0.00000   0.00000
1700  H 17  s       -0.00250   0.00020
1701  H 17  s       -0.00932   0.00537
1702  H 17  s       -0.00911  -0.04369
1703  H 17  s        0.09624   0.03554
1704  H 17  s       -0.15735  -0.22888
1705  H 17  px      -0.00040  -0.00051
1706  H 17  py      -0.00008  -0.00018
1707  H 17  pz      -0.00006  -0.00016
1708  H 17  px      -0.00006   0.00155
1709  H 17  py      -0.00040   0.00068
1710  H 17  pz      -0.00075   0.00060
1711  H 17  px      -0.01362   0.01039
1712  H 17  py      -0.00281  -0.00079
1713  H 17  pz      -0.00241   0.00069
1714  H 17  px      -0.05032   0.02192
1715  H 17  py       0.00481  -0.01033
1716  H 17  pz      -0.02100  -0.01997
1717  H 17  d 1     -0.00005   0.00013
1718  H 17  d 2     -0.00015  -0.00002
1719  H 17  d 3      0.00013  -0.00007
1720  H 17  d 4      0.00002   0.00021
1721  H 17  d 5      0.00007   0.00015
1722  H 17  d 1      0.00108  -0.00137
1723  H 17  d 2      0.00108  -0.00033
1724  H 17  d 3     -0.00072   0.00082
1725  H 17  d 4      0.00068  -0.00206
1726  H 17  d 5      0.00010  -0.00176
1727  H 17  d 1      0.00241   0.00208
1728  H 17  d 2     -0.00212   0.00308
1729  H 17  d 3     -0.00334   0.00580
1730  H 17  d 4      0.00669   0.00395
1731  H 17  d 5      0.00950  -0.00770
1732  H 17  f 1     -0.00005   0.00007
1733  H 17  f 2     -0.00002   0.00012
1734  H 17  f 3     -0.00006   0.00002
1735  H 17  f 4     -0.00004  -0.00010
1736  H 17  f 5      0.00000   0.00007
1737  H 17  f 6      0.00005   0.00008
1738  H 17  f 7      0.00007  -0.00001
1739  H 17  f 1     -0.00088   0.00040
1740  H 17  f 2     -0.00060  -0.00068
1741  H 17  f 3      0.00044  -0.00053
1742  H 17  f 4      0.00111  -0.00014
1743  H 17  f 5      0.00030  -0.00170
1744  H 17  f 6     -0.00132   0.00051
1745  H 17  f 7     -0.00103   0.00163
1746  H 17  g 1      0.00007  -0.00004
1747  H 17  g 2      0.00006   0.00001
1748  H 17  g 3     -0.00000   0.00007
1749  H 17  g 4     -0.00003   0.00002
1750  H 17  g 5     -0.00003  -0.00009
1751  H 17  g 6     -0.00007   0.00007
1752  H 17  g 7      0.00001   0.00007
1753  H 17  g 8      0.00006  -0.00007
1754  H 17  g 9      0.00002  -0.00010
1755  H 18  s       -0.00113   0.00085
1756  H 18  s       -0.00288   0.00403
1757  H 18  s        0.04479  -0.10969
1758  H 18  s        0.42029  -0.36113
1759  H 18  s       -0.43297   0.39759
1760  H 18  px      -0.00039   0.00021
1761  H 18  py       0.00075  -0.00062
1762  H 18  pz       0.00114  -0.00078
1763  H 18  px       0.00152  -0.00060
1764  H 18  py      -0.00164   0.00176
1765  H 18  pz      -0.00281   0.00234
1766  H 18  px      -0.01364   0.02506
1767  H 18  py       0.02614  -0.03645
1768  H 18  pz       0.03508  -0.04423
1769  H 18  px      -0.03843   0.05282
1770  H 18  py       0.10519  -0.07874
1771  H 18  pz       0.08470  -0.09558
1772  H 18  d 1     -0.00004  -0.00011
1773  H 18  d 2      0.00012  -0.00014
1774  H 18  d 3     -0.00003   0.00000
1775  H 18  d 4     -0.00005  -0.00009
1776  H 18  d 5     -0.00019  -0.00012
1777  H 18  d 1      0.00003   0.00220
1778  H 18  d 2      0.00070  -0.00183
1779  H 18  d 3      0.00092  -0.00095
1780  H 18  d 4     -0.00010   0.00246
1781  H 18  d 5      0.00031   0.00109
1782  H 18  d 1     -0.00820   0.01064
1783  H 18  d 2      0.01941  -0.01914
1784  H 18  d 3      0.00420  -0.00566
1785  H 18  d 4     -0.00825   0.01368
1786  H 18  d 5     -0.01100   0.00095
1787  H 18  f 1      0.00006   0.00004
1788  H 18  f 2     -0.00001   0.00021
1789  H 18  f 3      0.00005  -0.00013
1790  H 18  f 4      0.00007  -0.00000
1791  H 18  f 5     -0.00003   0.00008
1792  H 18  f 6      0.00002   0.00009
1793  H 18  f 7     -0.00008  -0.00007
1794  H 18  f 1     -0.00082  -0.00089
1795  H 18  f 2     -0.00088   0.00225
1796  H 18  f 3      0.00130  -0.00122
1797  H 18  f 4     -0.00069   0.00083
1798  H 18  f 5     -0.00032   0.00154
1799  H 18  f 6     -0.00156  -0.00004
1800  H 18  f 7      0.00093  -0.00109
1801  H 18  g 1      0.00003  -0.00001
1802  H 18  g 2     -0.00005  -0.00012
1803  H 18  g 3     -0.00001   0.00015
1804  H 18  g 4      0.00001   0.00001
1805  H 18  g 5     -0.00005   0.00009
1806  H 18  g 6      0.00001   0.00002
1807  H 18  g 7     -0.00007  -0.00003
1808  H 18  g 8      0.00005  -0.00010
1809  H 18  g 9      0.00003   0.00007

 -----------------------------------------------------------------
                    Cartesian Multipole Moments
 -----------------------------------------------------------------
    Charge (ESU x 10^10)
                -0.0000
    Dipole Moment (Debye)
         X      -4.0167      Y      -0.5995      Z       6.2726
       Tot       7.4725
    Quadrupole Moments (Debye-Ang)
        XX     -41.1722     XY     -12.9123     YY     -47.8330
        XZ       5.4061     YZ     -14.4599     ZZ     -82.3657
    Octopole Moments (Debye-Ang^2)
       XXX     -53.8364    XXY     -24.2425    XYY       3.7130
       YYY      -7.5346    XXZ      46.7067    XYZ      13.6985
       YYZ      -7.7572    XZZ      -4.3033    YZZ      -7.8452
       ZZZ      54.4323
    Hexadecapole Moments (Debye-Ang^3)
      XXXX   -1023.8199   XXXY     -49.1789   XXYY    -266.8378
      XYYY    -105.0669   YYYY    -661.5408   XXXZ      26.1899
      XXYZ     -89.1359   XYYZ      24.2388   YYYZ     -62.7342
      XXZZ    -510.8957   XYZZ      42.2074   YYZZ    -438.8092
      XZZZ     146.2021   YZZZ    -186.7537   ZZZZ   -1586.0697
 -----------------------------------------------------------------
 Total job time:  118039.00s(wall), 460628.91s(cpu) 
 Mon Dec 23 02:01:28 2024

        *************************************************************
        *                                                           *
        *  Thank you very much for using Q-Chem.  Have a nice day.  *
        *                                                           *
        *************************************************************


