                  Welcome to Q-Chem
     A Quantum Leap Into The Future Of Chemistry


 Q-Chem 6.2 (devel), Q-Chem, Inc., Pleasanton, CA (2024)

 E. Epifanovsky,  A. T. B. Gilbert,  Xintian Feng,  Joonho Lee,  Yuezhi Mao,  
 N. Mardirossian,  P. Pokhilko,  A. White,  M. Wormit,  M. P. Coons,  
 A. L. Dempwolff,  Zhengting Gan,  D. Hait,  P. R. Horn,  L. D. Jacobson,  
 I. Kaliman,  J. Kussmann,  A. W. Lange,  Ka Un Lao,  D. S. Levine,  Jie Liu,  
 S. C. McKenzie,  A. F. Morrison,  K. D. Nanda,  F. Plasser,  D. R. Rehn,  
 M. L. Vidal,  Zhi-Qiang You,  Ying Zhu,  Huseyin Aksu,  B. Alam,  
 B. Albrecht,  A. Aldossary,  E. Alguire,  J. H. Andersen,  
 J. E. Arias-Martinez,  V. Athavale,  D. Barton,  K. Begam,  A. Behn,  
 N. Bellonzi,  Y. A. Bernard,  E. J. Berquist,  H. Burton,  A. Carreras,  
 K. Carter-Fenk,  Mathew Chow,  Romit Chakraborty,  Chandrima Chakravarty,  
 Junhan Chen,  A. D. Chien,  K. D. Closser,  V. Cofer-Shabica,  L. Cunha,  
 S. Dasgupta,  Jia Deng,  Joseph Dickinson,  M. de Wergifosse,  
 M. Diedenhofen,  Hainam Do,  Wenjie Dou,  S. Ehlert,  Po-Tung Fang,  
 S. Fatehi,  Qingguo Feng,  Jonathan Fetherolf,  T. Friedhoff,  
 Thomas Froitzheim,  Sarai Folkestad,  B. Ganoe,  J. Gayvert,  Qinghui Ge,  
 G. Gidofalvi,  M. Gimferrer,  M. Goldey,  Montgomery Gray,  J. Gomes,  
 C. Gonzalez-Espinoza,  S. Gulania,  A. Gunina,  J. A. Gyamfi,  
 M. W. D. Hanson-Heine,  P. H. P. Harbach,  A. W. Hauser,  M. F. Herbst,  
 M. Hernandez Vera,  M. Hodecker,  Z. C. Holden,  S. Houck,  Xunkun Huang,  
 Kerwin Hui,  B. C. Huynh,  K. Ikeda,  M. Ivanov,  Nayanthara K. Jayadev,  
 Hyunjun Ji,  Zuxin Jin,  Hanjie Jiang,  Subrata Jana,  B. Kaduk,  
 S. Kaehler,  R. Kang,  K. Khistyaev,  Jaehoon Kim,  Yongbin Kim,  
 P. Klunzinger,  Z. Koczor-Benda,  Joong Hoon Koh,  D. Kosenkov,  
 Saikiran Kotaru,  L. Koulias,  T. Kowalczyk,  C. M. Krauter,  K. Kue,  
 A. Kunitsa,  T. Kus,  A. Landau,  K. V. Lawler,  D. Lefrancois,  S. Lehtola,  
 Rain Li,  Shaozhi Li,  Tao E. Li,  Yi-Pei Li,  Jiashu Liang,  M. Liebenthal,  
 Hung-Hsuan Lin,  You-Sheng Lin,  Fenglai Liu,  Kuan-Yu Liu,  Xiao Liu,  
 M. Loipersberger,  A. Luenser,  C. Malbon,  Aniket Mandal,  Manisha,  
 A. Manjanath,  P. Manohar,  E. Mansoor,  S. F. Manzer,  Shan-Ping Mao,  
 A. V. Marenich,  T. Markovich,  S. Mason,  F. Matz,  S. A. Maurer,  
 Samuel May,  Alexandra McIsaac,  P. F. McLaughlin,  M. F. S. J. Menger,  
 J.-M. Mewes,  S. A. Mewes,  P. Morgante,  Mohammad Mostafanejad,  
 Madhubani Mukherjee,  J. W. Mullinax,  Quyen Nguyen,  Avik Kumar Ojha,  
 K. J. Oosterbaan,  Eno Paenurk,  Xiaoliang Pan,  G. Paran,  V. Parravicini,  
 Alexander C. Paul,  Suranjan K. Paul,  F. Pavosevic,  Zheng Pei,  S. Prager,  
 E. I. Proynov,  E. Ramos,  B. Rana,  A. E. Rask,  A. Rettig,  R. M. Richard,  
 F. Rob,  E. Rossomme,  T. Scheele,  M. Scheurer,  M. Schneider,  
 P. E. Schneider,  Tim K. Schramm,  N. Sergueev,  S. M. Sharada,  
 Hengyuan Shen,  W. Skomorowski,  D. W. Small,  C. J. Stein,  
 Alistair J. Sterling,  Yingli Su,  Yu-Chuan Su,  E. J. Sundstrom,  
 J. Talbot,  Zhen Tao,  J. Thirman,  Hung-Yi Tsai,  T. Tsuchimochi,  
 N. M. Tubman,  C. Utku,  S. P. Veccham,  O. Vydrov,  Rahel Weiss,  
 J. Wenzel,  Jonathan Wong,  J. Witte,  H. Wu,  Yanze Wu,  A. Yamada,  
 Chou-Hsun Yang,  Kun Yao,  S. Yeganeh,  S. R. Yost,  Qi Yu,  A. Zech,  
 F. Zeller,  Chongxiao Zhao,  Igor Ying Zhang,  Xing Zhang,  Yu Zhang,  
 D. Zuev,  A. Aspuru-Guzik,  A. T. Bell,  N. A. Besley,  K. B. Bravaya,  
 B. R. Brooks,  D. Casanova,  Jeng-Da Chai,  Hsing-Ta Chen,  S. Coriani,  
 C. J. Cramer,  A. E. DePrince, III,  R. A. DiStasio Jr.,  A. Dreuw,  
 B. D. Dunietz,  T. R. Furlani,  W. A. Goddard III,  S. Grimme,  
 S. Hammes-Schiffer,  T. Head-Gordon,  W. J. Hehre,  Chao-Ping Hsu,  
 T.-C. Jagau,  Yousung Jung,  A. Klamt,  Jing Kong,  D. S. Lambrecht,  
 Xiangyuan Li,  WanZhen Liang,  N. J. Mayhall,  C. W. McCurdy,  J. B. Neaton,  
 T. Neudecker,  C. Ochsenfeld,  J. A. Parkhill,  R. Peverati,  
 V. A. Rassolov,  Haisheng Ren,  Yihan Shao,  L. V. Slipchenko,  
 R. P. Steele,  J. E. Subotnik,  A. J. W. Thom,  A. Tkatchenko,  
 D. G. Truhlar,  T. Van Voorhis,  Fan Wang,  T. A. Wesolowski,  K. B. Whaley,  
 H. L. Woodcock III,  P. M. Zimmerman,  S. Faraji,  P. M. W. Gill,  
 M. Head-Gordon,  J. M. Herbert,  A. I. Krylov

 Contributors to earlier versions of Q-Chem not listed above: 
 R. D. Adamson,  B. Austin,  R. Baer,  J. Baker,  G. J. O. Beran,  
 K. Brandhorst,  S. T. Brown,  E. F. C. Byrd,  Arup K. Chakraborty,  
 G. K. L. Chan,  Chun-Min Chang,  Yunqing Chen,  C.-L. Cheng,  
 Siu Hung Chien,  D. M. Chipman,  D. L. Crittenden,  H. Dachsel,  
 R. J. Doerksen,  A. D. Dutoi,  R. G. Edgar,  J. Fosso-Tande,  
 L. Fusti-Molnar,  D. Ghosh,  A. Ghysels,  A. Golubeva-Zadorozhnaya,  
 J. Gonthier,  M. S. Gordon,  S. R. Gwaltney,  G. Hawkins,  J. E. Herr,  
 A. Heyden,  S. Hirata,  E. G. Hohenstein,  G. Kedziora,  F. J. Keil,  
 C. Kelley,  Jihan Kim,  R. A. King,  R. Z. Khaliullin,  P. P. Korambath,  
 W. Kurlancheek,  A. Laurent,  A. M. Lee,  M. S. Lee,  S. V. Levchenko,  
 Ching Yeh Lin,  D. Liotard,  E. Livshits,  R. C. Lochan,  I. Lotan,  
 L. A. Martinez-Martinez,  P. E. Maslen,  N. Nair,  D. P. O'Neill,  
 D. Neuhauser,  E. Neuscamman,  C. M. Oana,  R. Olivares-Amaya,  R. Olson,  
 T. M. Perrine,  B. Peters,  P. A. Pieniazek,  A. Prociuk,  Y. M. Rhee,  
 J. Ritchie,  M. A. Rohrdanz,  E. Rosta,  N. J. Russ,  H. F. Schaefer III,  
 M. W. Schmidt,  N. E. Schultz,  S. Sharma,  N. Shenvi,  C. D. Sherrill,  
 A. C. Simmonett,  A. Sodt,  T. Stein,  D. Stuck,  K. S. Thanthiriwatte,  
 V. Vanovschi,  L. Vogt,  Tao Wang,  A. Warshel,  M. A. Watson,  
 C. F. Williams,  Q. Wu,  X. Xu,  Jun Yang,  W. Zhang,  Yan Zhao

   Please cite Q-Chem as follows:
  "Software for the frontiers of quantum chemistry:
   An overview of developments in the Q-Chem 5 package"
   J. Chem. Phys. 155, 084801 (2021)
   https://doi.org/10.1063/5.0055522 (open access)

 Q-Chem 6.2.2 for Intel X86 EM64T Linux

 Parts of Q-Chem use Armadillo 9.900.5 (Nocturnal Misbehaviour).
 http://arma.sourceforge.net/

 Q-Chem begins on Tue Dec 17 22:02:06 2024  

 Host: compute-0-12.local
0

     Scratch files written to /scratch/keith/A2D2_1//
 Processing $rem in /home/keith/software/qchem/qchem_622/config/preferences:
 Processing $rem in /home/keith/.qchemrc:

 Checking the input file for inconsistencies... 	...done.

--------------------------------------------------------------
User input:
--------------------------------------------------------------
$molecule
0 1
O 0.86737 3.82458 0.19485
O -0.47633 1.43788 0.03185
H -1.43673 1.54558 0.08785
H -0.32133 0.48888 0.25885
H 0.22937 4.50958 0.34185
H 0.28497 3.09158 0.25185
O 0.14567 -18.61042 -0.22115
H -0.40913 -19.36742 -0.13215
H -0.08003 -18.09302 -1.01715
O 1.94437 2.06158 -1.98115
H 2.66837 2.00558 -1.34015
H 1.56937 2.85858 -1.55915
O 2.29537 2.51358 2.27285
H 2.96137 3.03258 2.76885
H 1.99637 3.02758 1.47785
O -1.62533 4.90258 0.94885
H -2.52163 5.31158 0.88185
H -1.59173 4.24458 1.72585
O -2.97953 3.79558 -1.35215
H -3.63153 4.46258 -1.46915
H -2.44123 4.06658 -0.59415
$end

$rem
method                    b3lyp 
basis                     cc-pv5z 
mem_total                 48000
mem_static                8000
thresh                    12
scf_convergence           8
xc_grid                   000075000302
max_scf_cycles            2000
symmetry                  false
sym_ignore                true
print_orbitals true
$end
gui                       2
molden_format true
--------------------------------------------------------------
 ----------------------------------------------------------------
             Standard Nuclear Orientation (Angstroms)
    I     Atom           X                Y                Z
 ----------------------------------------------------------------
    1      O       0.8673700000     3.8245800000     0.1948500000
    2      O      -0.4763300000     1.4378800000     0.0318500000
    3      H      -1.4367300000     1.5455800000     0.0878500000
    4      H      -0.3213300000     0.4888800000     0.2588500000
    5      H       0.2293700000     4.5095800000     0.3418500000
    6      H       0.2849700000     3.0915800000     0.2518500000
    7      O       0.1456700000   -18.6104200000    -0.2211500000
    8      H      -0.4091300000   -19.3674200000    -0.1321500000
    9      H      -0.0800300000   -18.0930200000    -1.0171500000
   10      O       1.9443700000     2.0615800000    -1.9811500000
   11      H       2.6683700000     2.0055800000    -1.3401500000
   12      H       1.5693700000     2.8585800000    -1.5591500000
   13      O       2.2953700000     2.5135800000     2.2728500000
   14      H       2.9613700000     3.0325800000     2.7688500000
   15      H       1.9963700000     3.0275800000     1.4778500000
   16      O      -1.6253300000     4.9025800000     0.9488500000
   17      H      -2.5216300000     5.3115800000     0.8818500000
   18      H      -1.5917300000     4.2445800000     1.7258500000
   19      O      -2.9795300000     3.7955800000    -1.3521500000
   20      H      -3.6315300000     4.4625800000    -1.4691500000
   21      H      -2.4412300000     4.0665800000    -0.5941500000
 ----------------------------------------------------------------
 Nuclear Repulsion Energy =         294.65842812 hartrees
 There are       35 alpha and       35 beta electrons
 Requested basis set is cc-pV5Z
 There are 357 shells and 1407 basis functions

 Total QAlloc Memory Limit  48000 MB
 Mega-Array Size      7821 MB
 MEM_STATIC part      8000 MB

 A cutoff of  1.0D-12 yielded  31917 shell pairs
 There are    431577 function pairs (    719352 Cartesian)
 Smallest overlap matrix eigenvalue = 2.12E-05

 Scale SEOQF with 1.000000e-01/1.000000e-03/1.000000e-01

 Standard Electronic Orientation quadrupole field applied
 Nucleus-field energy     =    -0.0000000015 hartrees
 Guess from superposition of atomic densities
 Warning:  Energy on first SCF cycle will be non-variational
 SAD guess density has 70.000000 electrons

 -----------------------------------------------------------------------
  General SCF calculation program by
  Eric Jon Sundstrom, Paul Horn, Yuezhi Mao, Dmitri Zuev, Alec White,
  David Stuck, Shaama M.S., Shane Yost, Joonho Lee, David Small,
  Daniel Levine, Susi Lehtola, Hugh Burton, Evgeny Epifanovsky,
  Bang C. Huynh
 -----------------------------------------------------------------------
 Exchange:     0.2000 Hartree-Fock + 0.0800 Slater + 0.7200 B88
 Correlation:  0.1900 VWN1RPA + 0.8100 LYP
 Using Euler-Maclaurin-Lebedev (75,302) quadrature formula
 A restricted SCF calculation will be
 performed using DIIS
 SCF converges when DIIS error is below 1.0e-08
 ---------------------------------------
  Cycle       Energy         DIIS error
 ---------------------------------------
    1    -535.0651741123      6.19e-03  
    2    -534.8637212399      1.62e-03  
    3    -534.3384528475      2.40e-03  
    4    -535.3207409554      8.72e-05  
    5    -535.3210034045      8.00e-05  
    6    -535.3220046153      8.60e-06  
    7    -535.3220151065      2.23e-06  
    8    -535.3220155928      1.44e-06  
    9    -535.3220159255      1.06e-07  
   10    -535.3220159273      3.21e-08  
   11    -535.3220159274      2.05e-08  
   12    -535.3220159275      1.57e-09  Convergence criterion met
 ---------------------------------------
 SCF time:   CPU 199216.16s  wall 6367.00s 
 SCF   energy =  -535.32201593
 Total energy =  -535.32201593

 --------------------------------------------------------------

                    Orbital Energies (a.u.)
 --------------------------------------------------------------

 Alpha MOs
 -- Occupied --
-19.1976 -19.1544 -19.1313 -19.1293 -19.1276 -19.1030 -19.0975  -1.0646
 -1.0390  -1.0277  -1.0229  -1.0147  -0.9829  -0.9762  -0.5961  -0.5543
 -0.5503  -0.5485  -0.5409  -0.5095  -0.4732  -0.4601  -0.4266  -0.4095
 -0.4058  -0.3849  -0.3806  -0.3721  -0.3612  -0.3429  -0.3267  -0.3251
 -0.3206  -0.2927  -0.2851
 -- Virtual --
 -0.0553  -0.0096  -0.0025   0.0094   0.0174   0.0410   0.0485   0.0595
  0.0687   0.0688   0.1140   0.1267   0.1326   0.1525   0.1655   0.1793
  0.1846   0.1935   0.2044   0.2085   0.2128   0.2226   0.2324   0.2337
  0.2349   0.2435   0.2495   0.2520   0.2539   0.2563   0.2628   0.2691
  0.2748   0.2858   0.2886   0.2924   0.3000   0.3093   0.3125   0.3252
  0.3310   0.3400   0.3441   0.3459   0.3551   0.3634   0.3694   0.3820
  0.3963   0.4027   0.4080   0.4249   0.4325   0.4384   0.4477   0.4690
  0.4756   0.4806   0.4876   0.4928   0.5082   0.5158   0.5182   0.5332
  0.5404   0.5436   0.5661   0.5804   0.5935   0.6176   0.6260   0.6263
  0.6374   0.6515   0.6571   0.6725   0.6726   0.6790   0.6847   0.7039
  0.7087   0.7195   0.7306   0.7393   0.7468   0.7559   0.7665   0.7768
  0.7846   0.7880   0.7988   0.8022   0.8104   0.8175   0.8200   0.8250
  0.8356   0.8395   0.8478   0.8594   0.8658   0.8751   0.8834   0.9002
  0.9079   0.9189   0.9401   0.9556   0.9619   0.9766   0.9840   0.9942
  0.9980   1.0028   1.0241   1.0255   1.0406   1.0528   1.0573   1.0645
  1.0725   1.0756   1.0770   1.0897   1.1011   1.1153   1.1179   1.1293
  1.1360   1.1410   1.1509   1.1565   1.1687   1.1704   1.1789   1.1975
  1.2072   1.2083   1.2155   1.2301   1.2436   1.2560   1.2723   1.2938
  1.3002   1.3077   1.3186   1.3281   1.3380   1.3613   1.3615   1.3642
  1.3808   1.3959   1.4037   1.4097   1.4325   1.4442   1.4519   1.4543
  1.4551   1.4891   1.4975   1.5047   1.5079   1.5096   1.5126   1.5232
  1.5351   1.5506   1.5628   1.5655   1.5850   1.6034   1.6061   1.6145
  1.6188   1.6250   1.6455   1.6498   1.6658   1.6671   1.6798   1.6807
  1.6842   1.6875   1.6878   1.7020   1.7029   1.7174   1.7325   1.7387
  1.7416   1.7514   1.7518   1.7629   1.7699   1.7730   1.7745   1.7875
  1.7888   1.7922   1.7978   1.8035   1.8072   1.8210   1.8415   1.8459
  1.8581   1.8612   1.8688   1.8723   1.8927   1.9007   1.9024   1.9087
  1.9168   1.9323   1.9355   1.9528   1.9542   1.9674   1.9795   1.9838
  1.9993   1.9995   2.0069   2.0123   2.0227   2.0340   2.0407   2.0497
  2.0576   2.0669   2.0678   2.0827   2.0928   2.1043   2.1140   2.1397
  2.1538   2.1591   2.1687   2.1939   2.2144   2.2220   2.2404   2.2422
  2.2502   2.2560   2.2706   2.2790   2.2992   2.3091   2.3104   2.3258
  2.3349   2.3479   2.3526   2.3654   2.3732   2.3840   2.3844   2.3986
  2.4094   2.4183   2.4288   2.4412   2.4471   2.4483   2.4626   2.4719
  2.4772   2.5066   2.5160   2.5430   2.5466   2.5766   2.5819   2.6037
  2.6140   2.6276   2.6305   2.6376   2.6416   2.6568   2.6670   2.6766
  2.6834   2.6859   2.6917   2.7131   2.7239   2.7328   2.7408   2.7464
  2.7591   2.7714   2.7767   2.7876   2.7965   2.8027   2.8150   2.8308
  2.8444   2.8467   2.8712   2.8852   2.8879   2.8980   2.9001   2.9067
  2.9263   2.9450   2.9482   2.9664   2.9793   2.9962   3.0018   3.0189
  3.0304   3.0575   3.0673   3.0720   3.0829   3.1084   3.1444   3.1464
  3.1524   3.1659   3.1710   3.2010   3.2243   3.2278   3.2449   3.2633
  3.2741   3.2843   3.2945   3.3052   3.3097   3.3290   3.3301   3.3416
  3.3436   3.3511   3.3711   3.3823   3.3884   3.4140   3.4192   3.4218
  3.4292   3.4398   3.4556   3.4750   3.4755   3.4846   3.4949   3.4965
  3.5127   3.5229   3.5309   3.5472   3.5543   3.5666   3.5754   3.5866
  3.5940   3.6150   3.6368   3.6483   3.6687   3.6754   3.7019   3.7074
  3.7166   3.7323   3.7381   3.7462   3.7521   3.7612   3.7701   3.7884
  3.8005   3.8145   3.8155   3.8328   3.8353   3.8537   3.8790   3.8845
  3.9052   3.9063   3.9162   3.9374   3.9592   3.9705   3.9778   3.9934
  4.0047   4.0063   4.0249   4.0331   4.0351   4.0638   4.0807   4.0958
  4.1048   4.1424   4.1524   4.1561   4.1664   4.1801   4.1976   4.2401
  4.2473   4.2862   4.2864   4.2927   4.3163   4.3259   4.3429   4.3582
  4.3677   4.3749   4.3771   4.3919   4.3998   4.4200   4.4268   4.4348
  4.4395   4.4460   4.4489   4.4698   4.4771   4.4837   4.4886   4.4929
  4.4932   4.4979   4.4991   4.5113   4.5272   4.5305   4.5414   4.5438
  4.5635   4.5703   4.5835   4.5965   4.6050   4.6097   4.6203   4.6310
  4.6484   4.6502   4.6586   4.6615   4.6716   4.6818   4.6963   4.6992
  4.7058   4.7251   4.7280   4.7318   4.7433   4.7464   4.7554   4.7591
  4.7709   4.7824   4.7892   4.7951   4.8037   4.8129   4.8272   4.8357
  4.8396   4.8432   4.8549   4.8555   4.8731   4.8844   4.8947   4.9048
  4.9079   4.9159   4.9212   4.9309   4.9412   4.9556   4.9755   4.9799
  4.9858   4.9962   5.0120   5.0195   5.0228   5.0541   5.0705   5.0922
  5.0969   5.1157   5.1240   5.1247   5.1553   5.1617   5.1679   5.1928
  5.2095   5.2184   5.2353   5.2489   5.2650   5.2849   5.2878   5.2973
  5.3240   5.3337   5.3411   5.3466   5.3524   5.3600   5.3700   5.3745
  5.4052   5.4207   5.4218   5.4366   5.4414   5.4594   5.4741   5.4956
  5.5130   5.5496   5.5712   5.5937   5.6176   5.6293   5.6505   5.6602
  5.6742   5.7080   5.7121   5.7226   5.7286   5.7511   5.7672   5.7997
  5.8258   5.8317   5.8664   5.8949   5.9133   5.9344   5.9420   5.9444
  5.9626   5.9781   6.0135   6.0281   6.0449   6.0734   6.1155   6.1223
  6.1527   6.1717   6.1879   6.2116   6.2287   6.2418   6.2448   6.2467
  6.2488   6.2634   6.2875   6.2980   6.3157   6.3208   6.3214   6.3301
  6.3529   6.3620   6.3840   6.4021   6.4086   6.4190   6.4496   6.4925
  6.5190   6.5331   6.5372   6.5394   6.5593   6.5779   6.5992   6.6188
  6.6279   6.6334   6.6473   6.6512   6.6685   6.6809   6.7045   6.7187
  6.7305   6.7333   6.7452   6.7532   6.7683   6.7762   6.7925   6.7955
  6.7982   6.8030   6.8118   6.8210   6.8360   6.8414   6.8507   6.8703
  6.8748   6.8933   6.9080   6.9307   6.9332   6.9438   6.9521   6.9583
  6.9782   6.9877   7.0013   7.0160   7.0252   7.0374   7.0464   7.0582
  7.0691   7.0781   7.1090   7.1184   7.1393   7.1809   7.1923   7.1952
  7.2040   7.2248   7.2385   7.2479   7.2749   7.2832   7.3042   7.3246
  7.3317   7.3378   7.3505   7.3679   7.3808   7.3845   7.4141   7.4184
  7.4501   7.4567   7.4647   7.4846   7.4984   7.5173   7.5341   7.5435
  7.5608   7.5809   7.5933   7.6023   7.6049   7.6159   7.6476   7.6764
  7.7137   7.7518   7.7567   7.7793   7.7870   7.7986   7.7988   7.8065
  7.8340   7.8521   7.8570   7.8818   7.8974   7.9064   7.9219   7.9632
  7.9659   8.0075   8.0165   8.0550   8.0804   8.0964   8.1251   8.1440
  8.2393   8.2505   8.2561   8.2616   8.3172   8.3403   8.3916   8.4027
  8.4622   8.5135   8.5200   8.5717   8.5893   8.6325   8.7180   8.7919
  8.8576   8.9312   8.9364   8.9726   8.9859   8.9862   8.9892   9.0625
  9.0643   9.0908   9.0931   9.1128   9.1237   9.1540   9.2002   9.2016
  9.2462   9.2572   9.2965   9.3917   9.5515   9.5624   9.5907   9.6004
  9.6072   9.6511   9.6817   9.6864   9.7084   9.7126   9.7467   9.7611
  9.7638   9.8026   9.8198   9.8416   9.8549   9.9374   9.9500   9.9614
 10.0589  10.1133  10.2983  11.6229  11.6543  11.6914  11.7005  11.7116
 11.7188  11.7251  11.7325  11.7413  11.7609  11.7617  11.7699  11.7830
 11.7936  11.8029  11.8221  11.8355  11.8480  11.8631  11.8759  11.8919
 11.9063  11.9242  11.9311  11.9415  11.9739  11.9826  12.0016  12.0049
 12.0147  12.0196  12.0204  12.0460  12.0544  12.0821  12.0876  12.0925
 12.1030  12.1119  12.1271  12.1280  12.1326  12.1342  12.1368  12.1513
 12.1555  12.1584  12.1613  12.1697  12.1723  12.1820  12.1849  12.1907
 12.2002  12.2083  12.2103  12.2136  12.2203  12.2252  12.2256  12.2304
 12.2326  12.2365  12.2487  12.2588  12.2683  12.2763  12.2818  12.2928
 12.2997  12.3039  12.3088  12.3249  12.3284  12.3394  12.3416  12.3441
 12.3543  12.3611  12.3710  12.3756  12.3796  12.3817  12.3891  12.3984
 12.4023  12.4159  12.4438  12.4507  12.4693  12.4728  12.4752  12.4915
 12.5154  12.5170  12.5248  12.5298  12.5349  12.5543  12.5583  12.5686
 12.5775  12.5785  12.6077  12.6224  12.6371  12.6465  12.6548  12.6653
 12.6745  12.7104  12.7159  12.7357  12.7545  12.7593  12.7616  12.7854
 12.7862  12.7973  12.8037  12.8236  12.8315  12.8431  12.8512  12.8769
 12.8907  12.9009  12.9117  12.9161  12.9290  12.9419  12.9459  12.9563
 12.9597  12.9650  12.9932  13.0041  13.0119  13.0219  13.0368  13.0534
 13.0570  13.0920  13.0985  13.1307  13.1759  13.1776  13.2011  13.2049
 13.2183  13.2234  13.2440  13.2533  13.2716  13.2855  13.2884  13.3024
 13.3113  13.3257  13.3307  13.3334  13.3345  13.3480  13.3547  13.3680
 13.3762  13.3775  13.3900  13.3961  13.4077  13.4142  13.4180  13.4207
 13.4280  13.4346  13.4425  13.4534  13.4608  13.4716  13.4781  13.4818
 13.4967  13.5021  13.5158  13.5195  13.5197  13.5371  13.5387  13.5485
 13.5553  13.5619  13.5645  13.5671  13.5789  13.5937  13.6008  13.6139
 13.6140  13.6169  13.6252  13.6435  13.6537  13.6606  13.6687  13.6734
 13.6900  13.7056  13.7122  13.7233  13.7306  13.7445  13.7520  13.7755
 13.8001  13.8114  13.8141  13.8304  13.8500  13.8652  13.8887  13.8924
 13.8977  13.9091  13.9109  13.9156  13.9371  13.9372  13.9573  13.9744
 13.9767  13.9875  13.9926  14.0033  14.0112  14.0310  14.0375  14.0412
 14.0848  14.0966  14.1085  14.1210  14.1320  14.1446  14.1547  14.1820
 14.2034  14.2583  14.2604  14.2770  14.2890  14.3058  14.3102  14.3255
 14.3393  14.3500  14.3646  14.3875  14.4015  14.4289  14.4692  14.4918
 14.5130  14.5709  14.5801  14.6258  14.6530  14.6818  14.6914  14.7787
 14.8124  14.9468  15.0593  15.1280  15.1473  15.1636  15.1676  15.1943
 15.2198  15.2548  15.2574  15.3205  15.3295  15.3603  15.3995  15.4633
 15.4991  15.5120  15.5714  15.5885  15.5934  15.6006  15.6051  15.6536
 15.6680  15.6826  15.7216  15.7550  15.7822  15.8303  15.8525  15.8632
 15.8790  15.8955  15.9071  15.9157  15.9213  15.9411  15.9699  15.9977
 16.0339  16.0375  16.0478  16.0559  16.0626  16.0724  16.0801  16.0893
 16.0953  16.1051  16.1130  16.1152  16.1224  16.1291  16.1369  16.1532
 16.1597  16.1695  16.1793  16.1919  16.2094  16.2125  16.2199  16.2243
 16.2305  16.2402  16.2551  16.2698  16.2849  16.2930  16.3025  16.3106
 16.3351  16.3361  16.3522  16.3770  16.3821  16.4070  16.4281  16.4436
 16.4608  16.4868  16.5038  16.5320  16.5374  16.6202  16.6493  16.6627
 16.6821  16.6881  16.7423  16.7801  16.8011  16.8265  16.8426  16.9178
 16.9236  16.9319  16.9467  16.9972  17.0199  17.0394  17.0715  17.0872
 17.1222  17.1434  17.1525  17.1774  17.1886  17.1933  17.2195  17.2349
 17.2527  17.2723  17.2793  17.2869  17.3164  17.3262  17.3507  17.3907
 17.3979  17.4061  17.4436  17.4441  17.4768  17.5198  17.5427  17.5677
 17.5785  17.5809  17.5847  17.6132  17.6205  17.6336  17.6573  17.6937
 17.7366  17.7513  17.7745  17.7915  17.8260  17.8877  17.9051  17.9343
 17.9516  17.9848  18.0165  18.0368  18.0698  18.1048  18.1080  18.1398
 18.1535  18.1916  18.2075  18.2109  18.2147  18.2547  18.2590  18.2718
 18.2867  18.2881  18.3002  18.3013  18.3213  18.3290  18.3375  18.3515
 18.3549  18.3818  18.3986  18.4056  18.4498  18.4646  18.4812  18.5022
 18.5362  18.5501  18.5733  18.6167  18.6276  18.6597  18.6714  18.6768
 18.6979  18.7226  18.7342  18.7566  18.7723  18.7846  18.7994  18.8353
 18.8575  18.8998  18.9234  18.9537  18.9579  18.9638  18.9987  19.0177
 19.0668  19.1241  19.1600  19.1973  19.2434  19.2503  19.2793  19.2988
 19.3153  19.3194  19.3248  19.3513  19.3740  19.3799  19.3967  19.3970
 19.4187  19.4487  19.4776  19.4930  19.4946  19.5122  19.5155  19.5344
 19.5406  19.5540  19.5560  19.5886  19.6351  19.6509  19.6778  19.6922
 19.7194  19.7325  19.8050  19.8360  19.8417  19.8544  19.8652  19.8865
 19.9244  20.3081  20.4222  20.6063  20.6241  20.6436  20.6539  20.6559
 20.7039  20.7463  20.7672  20.7990  20.9987  21.0406  21.0474  21.1119
 21.7923  21.8287  21.8637  21.9022  21.9250  21.9294  21.9415  21.9650
 21.9724  22.0031  22.0206  22.0463  22.0508  22.0927  22.1617  22.2223
 22.2365  22.2954  22.3053  22.3191  22.3342  22.3614  22.4820  22.6155
 22.6350  22.6732  22.6824  22.7918  22.8182  22.8326  22.8359  22.8719
 22.8856  22.9414  22.9914  23.0560  23.0903  23.1485  23.1907  23.1984
 23.2889  23.4480  23.4553  23.4690  23.5169  23.6224  23.7383  23.7513
 23.9298  23.9683  24.1219  24.3478  24.3525  24.4199  24.4271  24.4981
 24.5316  24.5657  24.5827  24.6230  24.7980  24.8428  24.9309  24.9507
 24.9625  25.0589  25.1946  25.2484  25.2570  25.4204  25.5479  25.6500
 25.6949  25.8932  26.1341  26.3347  26.7638  63.8749  63.9912  64.0165
 64.0527  64.2184  64.3873  64.9565
 --------------------------------------------------------------


                        RESTRICTED (RHF) MOLECULAR ORBITAL COEFFICIENTS
                         1         2         3         4         5         6
 eigenvalues:        -19.198   -19.154   -19.131   -19.129   -19.128   -19.103
   1  O 1   s       -0.00000  -0.00003   0.00001  -0.00000   0.97876  -0.00005
   2  O 1   s       -0.00001   0.00000   0.00000  -0.00000   0.03135  -0.00002
   3  O 1   s       -0.00002   0.00001   0.00001  -0.00000   0.08569  -0.00004
   4  O 1   s        0.00003  -0.00024  -0.00002   0.00000  -0.01663   0.00056
   5  O 1   s        0.00017   0.00166  -0.00010  -0.00000  -0.02107  -0.00235
   6  O 1   s       -0.00037   0.00105   0.00009   0.00000  -0.00772  -0.00118
   7  O 1   px      -0.00000   0.00000  -0.00000   0.00000  -0.00106   0.00001
   8  O 1   py      -0.00000  -0.00001   0.00000   0.00000  -0.00002   0.00000
   9  O 1   pz       0.00000  -0.00000   0.00000  -0.00000   0.00022  -0.00001
  10  O 1   px       0.00001  -0.00001   0.00001  -0.00000  -0.00095  -0.00008
  11  O 1   py       0.00002   0.00005  -0.00002  -0.00000  -0.00013  -0.00002
  12  O 1   pz      -0.00001   0.00001  -0.00000  -0.00000   0.00014   0.00006
  13  O 1   px      -0.00010  -0.00000  -0.00000   0.00000   0.01184   0.00035
  14  O 1   py      -0.00022  -0.00002   0.00015   0.00000   0.00160   0.00009
  15  O 1   pz       0.00007  -0.00004   0.00000   0.00000  -0.00191  -0.00022
  16  O 1   px      -0.00033  -0.00073  -0.00033   0.00000   0.00262   0.00205
  17  O 1   py      -0.00126   0.00094   0.00047   0.00000  -0.00003  -0.00036
  18  O 1   pz      -0.00015  -0.00016  -0.00006   0.00000  -0.00059  -0.00021
  19  O 1   px       0.00004  -0.00021  -0.00006  -0.00000   0.00077  -0.00004
  20  O 1   py      -0.00079   0.00032  -0.00000   0.00000  -0.00038   0.00030
  21  O 1   pz      -0.00009  -0.00000  -0.00002   0.00000  -0.00036  -0.00008
  22  O 1   d 1      0.00000  -0.00000   0.00000   0.00000  -0.00000   0.00000
  23  O 1   d 2     -0.00000   0.00000  -0.00000  -0.00000   0.00003   0.00000
  24  O 1   d 3      0.00000   0.00000  -0.00000  -0.00000  -0.00024   0.00001
  25  O 1   d 4      0.00000   0.00000  -0.00000  -0.00000  -0.00006  -0.00000
  26  O 1   d 5      0.00000  -0.00001   0.00000  -0.00000  -0.00007   0.00000
  27  O 1   d 1     -0.00002   0.00000  -0.00001  -0.00000   0.00001   0.00001
  28  O 1   d 2      0.00000  -0.00000   0.00000   0.00000  -0.00008   0.00000
  29  O 1   d 3     -0.00000   0.00000   0.00000   0.00000   0.00044  -0.00003
  30  O 1   d 4      0.00000  -0.00001   0.00000   0.00000   0.00012   0.00000
  31  O 1   d 5     -0.00001   0.00004  -0.00001  -0.00000   0.00010  -0.00001
  32  O 1   d 1      0.00024  -0.00022  -0.00005  -0.00000  -0.00054  -0.00010
  33  O 1   d 2     -0.00004   0.00010   0.00001   0.00000  -0.00019  -0.00003
  34  O 1   d 3     -0.00000  -0.00009   0.00000   0.00000   0.00320   0.00024
  35  O 1   d 4     -0.00005   0.00008   0.00000  -0.00000   0.00076   0.00008
  36  O 1   d 5      0.00010  -0.00040   0.00007   0.00000   0.00100   0.00009
  37  O 1   d 1      0.00053  -0.00039  -0.00007  -0.00000  -0.00001  -0.00040
  38  O 1   d 2     -0.00038   0.00024   0.00003  -0.00000   0.00025  -0.00043
  39  O 1   d 3     -0.00014  -0.00014  -0.00006   0.00000  -0.00063   0.00045
  40  O 1   d 4      0.00012   0.00008   0.00003  -0.00000  -0.00020   0.00059
  41  O 1   d 5      0.00031   0.00011   0.00025   0.00000   0.00031  -0.00009
  42  O 1   f 1      0.00000  -0.00002   0.00000  -0.00000   0.00001  -0.00000
  43  O 1   f 2      0.00000   0.00000  -0.00000  -0.00000  -0.00002   0.00000
  44  O 1   f 3     -0.00000  -0.00000   0.00000   0.00000   0.00003  -0.00000
  45  O 1   f 4      0.00000  -0.00000  -0.00000   0.00000  -0.00003   0.00000
  46  O 1   f 5      0.00000   0.00000   0.00000  -0.00000   0.00008   0.00001
  47  O 1   f 6      0.00000   0.00000  -0.00000  -0.00000  -0.00001  -0.00001
  48  O 1   f 7     -0.00000  -0.00002  -0.00000   0.00000   0.00015   0.00001
  49  O 1   f 1     -0.00002   0.00010  -0.00000   0.00000  -0.00011   0.00002
  50  O 1   f 2     -0.00000  -0.00003  -0.00000  -0.00000   0.00015  -0.00001
  51  O 1   f 3      0.00002   0.00000  -0.00001  -0.00000  -0.00017   0.00000
  52  O 1   f 4     -0.00001   0.00001   0.00001  -0.00000   0.00031  -0.00000
  53  O 1   f 5     -0.00001  -0.00001  -0.00001  -0.00000  -0.00070  -0.00003
  54  O 1   f 6     -0.00000  -0.00002   0.00001   0.00000   0.00006   0.00003
  55  O 1   f 7      0.00000   0.00009  -0.00000  -0.00000  -0.00130  -0.00005
  56  O 1   f 1     -0.00015   0.00010  -0.00006   0.00000   0.00022   0.00025
  57  O 1   f 2      0.00012  -0.00011  -0.00001   0.00000  -0.00020   0.00003
  58  O 1   f 3     -0.00000  -0.00003  -0.00003  -0.00000   0.00017  -0.00008
  59  O 1   f 4     -0.00002   0.00007   0.00001  -0.00000  -0.00013   0.00010
  60  O 1   f 5      0.00010  -0.00000   0.00005   0.00000   0.00022  -0.00003
  61  O 1   f 6     -0.00003  -0.00000   0.00001  -0.00000   0.00009  -0.00010
  62  O 1   f 7     -0.00010   0.00006  -0.00005  -0.00000   0.00012  -0.00025
  63  O 1   g 1     -0.00000  -0.00001  -0.00000   0.00000   0.00003   0.00000
  64  O 1   g 2      0.00000  -0.00000  -0.00000   0.00000  -0.00002  -0.00001
  65  O 1   g 3     -0.00000  -0.00000   0.00000   0.00000   0.00002  -0.00001
  66  O 1   g 4     -0.00000   0.00000  -0.00000  -0.00000   0.00002  -0.00000
  67  O 1   g 5     -0.00000   0.00000  -0.00000  -0.00000  -0.00009  -0.00001
  68  O 1   g 6      0.00000   0.00000   0.00000  -0.00000  -0.00005  -0.00000
  69  O 1   g 7      0.00000   0.00000   0.00000  -0.00000  -0.00002   0.00001
  70  O 1   g 8     -0.00000   0.00000   0.00000  -0.00000  -0.00004  -0.00000
  71  O 1   g 9     -0.00000   0.00000   0.00000   0.00000   0.00016  -0.00001
  72  O 1   g 1      0.00002  -0.00004   0.00002   0.00000  -0.00001  -0.00004
  73  O 1   g 2     -0.00001   0.00002   0.00000  -0.00000   0.00001   0.00005
  74  O 1   g 3      0.00000   0.00002  -0.00000   0.00000  -0.00001   0.00005
  75  O 1   g 4      0.00001  -0.00002   0.00000   0.00000  -0.00001   0.00001
  76  O 1   g 5      0.00001  -0.00001   0.00001   0.00000  -0.00002   0.00001
  77  O 1   g 6      0.00001  -0.00003  -0.00000   0.00000   0.00001  -0.00002
  78  O 1   g 7     -0.00003   0.00002  -0.00001  -0.00000  -0.00002  -0.00003
  79  O 1   g 8      0.00001  -0.00001  -0.00001   0.00000  -0.00006  -0.00001
  80  O 1   g 9     -0.00001   0.00002  -0.00001  -0.00000   0.00015   0.00008
  81  O 1   h 1     -0.00000   0.00000  -0.00000  -0.00000  -0.00001  -0.00000
  82  O 1   h 2      0.00000  -0.00000  -0.00000  -0.00000  -0.00000  -0.00001
  83  O 1   h 3      0.00000  -0.00000   0.00000  -0.00000   0.00000  -0.00000
  84  O 1   h 4     -0.00000   0.00000  -0.00000  -0.00000  -0.00002   0.00001
  85  O 1   h 5      0.00000   0.00000   0.00000   0.00000   0.00001   0.00000
  86  O 1   h 6      0.00000  -0.00000  -0.00000   0.00000  -0.00003   0.00000
  87  O 1   h 7     -0.00000   0.00000  -0.00000  -0.00000   0.00004   0.00000
  88  O 1   h 8      0.00000   0.00000  -0.00000  -0.00000  -0.00001   0.00000
  89  O 1   h 9      0.00000  -0.00000   0.00000  -0.00000   0.00007   0.00000
  90  O 1   h10     -0.00000   0.00001   0.00000  -0.00000   0.00004   0.00001
  91  O 1   h11      0.00000  -0.00001   0.00000   0.00000  -0.00005  -0.00000
  92  O 2   s       -0.00000   0.97838   0.00001   0.00000   0.00004  -0.00000
  93  O 2   s       -0.00000   0.03078   0.00001  -0.00000   0.00001  -0.00000
  94  O 2   s       -0.00000   0.08483   0.00002  -0.00000   0.00003  -0.00000
  95  O 2   s       -0.00002  -0.01494   0.00004   0.00000  -0.00030  -0.00000
  96  O 2   s        0.00020  -0.01279  -0.00078  -0.00000   0.00147   0.00009
  97  O 2   s        0.00058  -0.00371  -0.00128  -0.00000   0.00075   0.00058
  98  O 2   px      -0.00000  -0.00081  -0.00000  -0.00000  -0.00000  -0.00000
  99  O 2   py       0.00000  -0.00076   0.00000   0.00000  -0.00000  -0.00000
 100  O 2   pz       0.00000   0.00036  -0.00000  -0.00000   0.00000  -0.00000
 101  O 2   px       0.00001  -0.00047   0.00000   0.00000   0.00001   0.00000
 102  O 2   py      -0.00001  -0.00044  -0.00001  -0.00000   0.00005   0.00000
 103  O 2   pz      -0.00000   0.00013   0.00001   0.00000  -0.00002   0.00000
 104  O 2   px      -0.00010   0.00629   0.00004  -0.00000   0.00002  -0.00002
 105  O 2   py       0.00005   0.00538   0.00011   0.00000  -0.00025   0.00001
 106  O 2   pz       0.00002  -0.00189  -0.00004  -0.00000   0.00009  -0.00000
 107  O 2   px      -0.00020   0.00085   0.00003  -0.00000  -0.00100   0.00011
 108  O 2   py       0.00005   0.00042   0.00063   0.00000  -0.00108  -0.00015
 109  O 2   pz       0.00008  -0.00018   0.00000  -0.00000   0.00029   0.00007
 110  O 2   px      -0.00016   0.00025  -0.00014   0.00000  -0.00013   0.00044
 111  O 2   py       0.00001   0.00072   0.00071   0.00000   0.00031  -0.00026
 112  O 2   pz       0.00002  -0.00021  -0.00013  -0.00000   0.00007   0.00011
 113  O 2   d 1     -0.00000  -0.00010   0.00000   0.00000   0.00001  -0.00000
 114  O 2   d 2     -0.00000  -0.00009  -0.00000  -0.00000   0.00000  -0.00000
 115  O 2   d 3     -0.00000  -0.00025   0.00000   0.00000  -0.00001   0.00000
 116  O 2   d 4     -0.00000  -0.00001   0.00000  -0.00000   0.00000  -0.00000
 117  O 2   d 5      0.00000   0.00002   0.00000  -0.00000  -0.00000   0.00000
 118  O 2   d 1      0.00000   0.00015  -0.00000  -0.00000  -0.00004   0.00001
 119  O 2   d 2      0.00000   0.00016   0.00001   0.00000  -0.00000   0.00001
 120  O 2   d 3      0.00000   0.00043  -0.00001  -0.00000   0.00004  -0.00000
 121  O 2   d 4      0.00000   0.00003   0.00000   0.00000  -0.00001   0.00001
 122  O 2   d 5     -0.00000  -0.00004  -0.00001  -0.00000   0.00001  -0.00000
 123  O 2   d 1     -0.00002   0.00140   0.00004   0.00000   0.00011  -0.00003
 124  O 2   d 2     -0.00000   0.00087   0.00000   0.00000  -0.00008  -0.00002
 125  O 2   d 3     -0.00002   0.00229   0.00007   0.00000  -0.00016   0.00000
 126  O 2   d 4     -0.00003   0.00005  -0.00002  -0.00000   0.00002  -0.00001
 127  O 2   d 5      0.00004  -0.00049   0.00004   0.00000  -0.00008   0.00003
 128  O 2   d 1     -0.00006  -0.00039   0.00010   0.00000  -0.00012  -0.00003
 129  O 2   d 2     -0.00001  -0.00026   0.00012   0.00000  -0.00033  -0.00003
 130  O 2   d 3     -0.00004  -0.00063   0.00003   0.00000   0.00002  -0.00004
 131  O 2   d 4     -0.00004  -0.00005  -0.00008  -0.00000  -0.00000   0.00009
 132  O 2   d 5     -0.00004  -0.00005   0.00002   0.00000   0.00058  -0.00007
 133  O 2   f 1     -0.00000   0.00010   0.00000   0.00000  -0.00001   0.00000
 134  O 2   f 2      0.00000  -0.00002  -0.00000  -0.00000  -0.00000   0.00000
 135  O 2   f 3      0.00000   0.00004  -0.00000   0.00000  -0.00000  -0.00000
 136  O 2   f 4      0.00000  -0.00004   0.00000   0.00000  -0.00000  -0.00000
 137  O 2   f 5     -0.00000   0.00006   0.00000  -0.00000   0.00000  -0.00000
 138  O 2   f 6     -0.00000  -0.00003  -0.00000  -0.00000  -0.00000   0.00000
 139  O 2   f 7     -0.00000  -0.00013   0.00000  -0.00000   0.00000  -0.00000
 140  O 2   f 1      0.00001  -0.00078  -0.00001  -0.00000   0.00004  -0.00000
 141  O 2   f 2     -0.00000   0.00014   0.00000   0.00000   0.00001  -0.00000
 142  O 2   f 3     -0.00000  -0.00028  -0.00000  -0.00000   0.00002  -0.00000
 143  O 2   f 4     -0.00000   0.00033  -0.00000   0.00000   0.00000   0.00000
 144  O 2   f 5      0.00000  -0.00047  -0.00000   0.00000  -0.00000   0.00001
 145  O 2   f 6      0.00000   0.00024   0.00001   0.00000  -0.00000  -0.00000
 146  O 2   f 7      0.00000   0.00099   0.00001   0.00000  -0.00001   0.00000
 147  O 2   f 1      0.00005   0.00047  -0.00002  -0.00000  -0.00009  -0.00001
 148  O 2   f 2      0.00000  -0.00003  -0.00001  -0.00000  -0.00004  -0.00001
 149  O 2   f 3     -0.00002   0.00015  -0.00004  -0.00000   0.00009  -0.00001
 150  O 2   f 4     -0.00002  -0.00020  -0.00002  -0.00000  -0.00004  -0.00001
 151  O 2   f 5     -0.00000   0.00019   0.00001  -0.00000   0.00010   0.00000
 152  O 2   f 6      0.00000  -0.00013   0.00002   0.00000  -0.00004  -0.00002
 153  O 2   f 7     -0.00000  -0.00051   0.00003   0.00000  -0.00008  -0.00001
 154  O 2   g 1      0.00000  -0.00000   0.00000   0.00000   0.00001   0.00000
 155  O 2   g 2     -0.00000  -0.00005  -0.00000   0.00000   0.00001   0.00000
 156  O 2   g 3     -0.00000  -0.00003  -0.00000   0.00000   0.00001   0.00000
 157  O 2   g 4     -0.00000  -0.00005   0.00000   0.00000   0.00001  -0.00000
 158  O 2   g 5      0.00000  -0.00007  -0.00000   0.00000  -0.00000  -0.00000
 159  O 2   g 6      0.00000  -0.00001  -0.00000   0.00000   0.00000   0.00000
 160  O 2   g 7     -0.00000   0.00003   0.00000  -0.00000  -0.00000  -0.00000
 161  O 2   g 8      0.00000   0.00004   0.00000   0.00000   0.00001  -0.00000
 162  O 2   g 9     -0.00000  -0.00014  -0.00000   0.00000  -0.00001  -0.00000
 163  O 2   g 1     -0.00001  -0.00002  -0.00000  -0.00000  -0.00002  -0.00000
 164  O 2   g 2      0.00001   0.00002   0.00001  -0.00000  -0.00003   0.00000
 165  O 2   g 3      0.00000  -0.00003  -0.00000  -0.00000  -0.00003  -0.00000
 166  O 2   g 4     -0.00000  -0.00001  -0.00000  -0.00000  -0.00000   0.00000
 167  O 2   g 5     -0.00000  -0.00002   0.00000  -0.00000   0.00001   0.00000
 168  O 2   g 6      0.00000   0.00001   0.00001   0.00000  -0.00001  -0.00001
 169  O 2   g 7      0.00000   0.00002  -0.00000  -0.00000   0.00001  -0.00000
 170  O 2   g 8     -0.00000   0.00000  -0.00001  -0.00000  -0.00002   0.00000
 171  O 2   g 9      0.00000   0.00004  -0.00000  -0.00000   0.00007   0.00000
 172  O 2   h 1      0.00000  -0.00001  -0.00000   0.00000  -0.00001   0.00000
 173  O 2   h 2     -0.00000  -0.00002  -0.00000  -0.00000  -0.00000   0.00000
 174  O 2   h 3     -0.00000   0.00003   0.00000   0.00000  -0.00000   0.00000
 175  O 2   h 4      0.00000  -0.00002   0.00000  -0.00000  -0.00001  -0.00000
 176  O 2   h 5      0.00000   0.00001   0.00000   0.00000  -0.00000   0.00000
 177  O 2   h 6      0.00000  -0.00003   0.00000  -0.00000   0.00000   0.00000
 178  O 2   h 7      0.00000   0.00003  -0.00000   0.00000   0.00000  -0.00000
 179  O 2   h 8     -0.00000  -0.00002  -0.00000  -0.00000   0.00000   0.00000
 180  O 2   h 9     -0.00000  -0.00004  -0.00000  -0.00000   0.00000  -0.00000
 181  O 2   h10      0.00000  -0.00003   0.00000  -0.00000   0.00000  -0.00000
 182  O 2   h11      0.00000   0.00000  -0.00000  -0.00000  -0.00001  -0.00000
 183  H 1   s        0.00000  -0.00020   0.00000  -0.00000   0.00000   0.00000
 184  H 1   s        0.00003  -0.00166  -0.00004   0.00000  -0.00004   0.00001
 185  H 1   s       -0.00025   0.00947   0.00023  -0.00000  -0.00105  -0.00003
 186  H 1   s       -0.00044   0.00238  -0.00001   0.00000  -0.00062   0.00031
 187  H 1   s       -0.00001   0.00016   0.00004   0.00000   0.00008   0.00003
 188  H 1   px      -0.00000  -0.00021   0.00000   0.00000  -0.00000   0.00000
 189  H 1   py      -0.00000   0.00003  -0.00000   0.00000   0.00001   0.00000
 190  H 1   pz      -0.00000   0.00001   0.00000  -0.00000   0.00000   0.00000
 191  H 1   px       0.00001   0.00006  -0.00002   0.00000  -0.00002  -0.00001
 192  H 1   py       0.00001  -0.00005   0.00000  -0.00000  -0.00004  -0.00001
 193  H 1   pz       0.00001   0.00001  -0.00000   0.00000  -0.00001  -0.00002
 194  H 1   px      -0.00017   0.00780   0.00016  -0.00000  -0.00027  -0.00002
 195  H 1   py      -0.00006  -0.00079  -0.00002   0.00000   0.00038   0.00002
 196  H 1   pz      -0.00004  -0.00053  -0.00005  -0.00000   0.00008   0.00006
 197  H 1   px      -0.00021   0.00268   0.00001   0.00000  -0.00029   0.00003
 198  H 1   py      -0.00003  -0.00042  -0.00006   0.00000   0.00013  -0.00002
 199  H 1   pz      -0.00001  -0.00013  -0.00011  -0.00000  -0.00001  -0.00004
 200  H 1   d 1      0.00000   0.00003  -0.00000  -0.00000  -0.00001  -0.00000
 201  H 1   d 2      0.00000  -0.00000  -0.00001  -0.00000   0.00000  -0.00000
 202  H 1   d 3     -0.00000   0.00011   0.00001  -0.00000   0.00000   0.00000
 203  H 1   d 4      0.00000   0.00003   0.00000   0.00000  -0.00000  -0.00000
 204  H 1   d 5      0.00000  -0.00018  -0.00000   0.00000  -0.00001  -0.00000
 205  H 1   d 1     -0.00001  -0.00042   0.00001   0.00000   0.00009   0.00000
 206  H 1   d 2     -0.00001   0.00001   0.00002   0.00000  -0.00000  -0.00000
 207  H 1   d 3      0.00001  -0.00131  -0.00002   0.00000   0.00001   0.00000
 208  H 1   d 4     -0.00001  -0.00031  -0.00002  -0.00000   0.00002   0.00001
 209  H 1   d 5     -0.00002   0.00219   0.00001  -0.00000   0.00001  -0.00001
 210  H 1   d 1     -0.00005  -0.00059  -0.00005   0.00000   0.00017  -0.00001
 211  H 1   d 2      0.00002   0.00008  -0.00003   0.00000   0.00000  -0.00001
 212  H 1   d 3      0.00004  -0.00156   0.00002   0.00000  -0.00004   0.00002
 213  H 1   d 4     -0.00003  -0.00032  -0.00005  -0.00000   0.00001   0.00001
 214  H 1   d 5     -0.00008   0.00266   0.00007  -0.00000  -0.00003  -0.00000
 215  H 1   f 1      0.00000  -0.00006  -0.00000   0.00000   0.00001   0.00000
 216  H 1   f 2     -0.00000   0.00000  -0.00000   0.00000   0.00000   0.00000
 217  H 1   f 3     -0.00000   0.00002  -0.00000   0.00000  -0.00001  -0.00000
 218  H 1   f 4      0.00000   0.00003   0.00000   0.00000  -0.00000  -0.00000
 219  H 1   f 5      0.00000  -0.00018  -0.00000   0.00000   0.00000  -0.00000
 220  H 1   f 6      0.00000  -0.00004  -0.00000  -0.00000   0.00000   0.00000
 221  H 1   f 7     -0.00000   0.00023  -0.00000  -0.00000  -0.00000  -0.00000
 222  H 1   f 1     -0.00002  -0.00033  -0.00000   0.00000   0.00003  -0.00000
 223  H 1   f 2      0.00000   0.00002   0.00000   0.00000  -0.00000  -0.00000
 224  H 1   f 3      0.00001   0.00007   0.00001  -0.00000  -0.00000   0.00000
 225  H 1   f 4      0.00001   0.00016   0.00001   0.00000   0.00000   0.00000
 226  H 1   f 5      0.00001  -0.00095   0.00000   0.00000  -0.00002   0.00001
 227  H 1   f 6     -0.00001  -0.00017  -0.00001  -0.00000   0.00000   0.00000
 228  H 1   f 7     -0.00002   0.00110   0.00002  -0.00000   0.00001   0.00000
 229  H 1   g 1     -0.00000  -0.00005   0.00000   0.00000   0.00000  -0.00000
 230  H 1   g 2      0.00000   0.00000   0.00000   0.00000   0.00000  -0.00000
 231  H 1   g 3      0.00000   0.00001   0.00000  -0.00000  -0.00000  -0.00000
 232  H 1   g 4     -0.00000  -0.00000  -0.00000  -0.00000   0.00000  -0.00000
 233  H 1   g 5     -0.00000   0.00008  -0.00000  -0.00000   0.00000  -0.00000
 234  H 1   g 6      0.00000   0.00004   0.00000   0.00000  -0.00000  -0.00000
 235  H 1   g 7      0.00000  -0.00012  -0.00000   0.00000  -0.00000  -0.00000
 236  H 1   g 8     -0.00000  -0.00003  -0.00000  -0.00000   0.00000   0.00000
 237  H 1   g 9     -0.00000   0.00014   0.00000  -0.00000  -0.00000  -0.00000
 238  H 2   s        0.00000  -0.00014   0.00000  -0.00000   0.00000  -0.00000
 239  H 2   s       -0.00001  -0.00171  -0.00005  -0.00000   0.00011   0.00000
 240  H 2   s       -0.00007   0.00759   0.00053   0.00000  -0.00094  -0.00006
 241  H 2   s       -0.00005   0.00270   0.00157   0.00000  -0.00001  -0.00088
 242  H 2   s        0.00002   0.00016   0.00001  -0.00000   0.00005   0.00002
 243  H 2   px      -0.00000   0.00003   0.00000   0.00000  -0.00001   0.00000
 244  H 2   py       0.00000  -0.00017   0.00000  -0.00000  -0.00000  -0.00000
 245  H 2   pz       0.00000   0.00004   0.00000  -0.00000  -0.00001  -0.00000
 246  H 2   px       0.00000  -0.00001  -0.00000  -0.00000   0.00002  -0.00000
 247  H 2   py      -0.00000  -0.00014  -0.00002   0.00000   0.00003   0.00001
 248  H 2   pz       0.00000   0.00003  -0.00000   0.00000   0.00005   0.00000
 249  H 2   px       0.00001  -0.00091  -0.00001  -0.00000   0.00011   0.00002
 250  H 2   py       0.00000   0.00646   0.00029   0.00000  -0.00057  -0.00003
 251  H 2   pz      -0.00000  -0.00152  -0.00007  -0.00000  -0.00002  -0.00003
 252  H 2   px       0.00006  -0.00040  -0.00006  -0.00000  -0.00002  -0.00012
 253  H 2   py      -0.00000   0.00241   0.00062   0.00000  -0.00022  -0.00033
 254  H 2   pz       0.00000  -0.00056  -0.00015  -0.00000  -0.00020   0.00004
 255  H 2   d 1      0.00000   0.00004  -0.00000   0.00000  -0.00001  -0.00000
 256  H 2   d 2      0.00000   0.00009   0.00000   0.00000  -0.00001   0.00000
 257  H 2   d 3     -0.00000   0.00011   0.00000   0.00000  -0.00000   0.00000
 258  H 2   d 4     -0.00000  -0.00001  -0.00000   0.00000   0.00001   0.00000
 259  H 2   d 5      0.00000   0.00019   0.00000   0.00000  -0.00000   0.00000
 260  H 2   d 1      0.00000  -0.00048  -0.00000  -0.00000   0.00007   0.00001
 261  H 2   d 2     -0.00001  -0.00090  -0.00002  -0.00000   0.00007  -0.00001
 262  H 2   d 3      0.00000  -0.00100  -0.00001  -0.00000   0.00004  -0.00000
 263  H 2   d 4      0.00000   0.00011   0.00000   0.00000  -0.00006  -0.00000
 264  H 2   d 5     -0.00000  -0.00181  -0.00002  -0.00000   0.00006  -0.00001
 265  H 2   d 1      0.00003  -0.00069  -0.00002  -0.00000   0.00001  -0.00006
 266  H 2   d 2     -0.00001  -0.00106  -0.00007  -0.00000  -0.00010  -0.00001
 267  H 2   d 3     -0.00002  -0.00118  -0.00007  -0.00000   0.00016   0.00003
 268  H 2   d 4     -0.00000   0.00020   0.00000   0.00000   0.00003  -0.00000
 269  H 2   d 5     -0.00001  -0.00227  -0.00014  -0.00000   0.00011   0.00005
 270  H 2   f 1     -0.00000  -0.00019  -0.00000  -0.00000   0.00001  -0.00000
 271  H 2   f 2      0.00000   0.00002   0.00000   0.00000  -0.00001   0.00000
 272  H 2   f 3      0.00000  -0.00012  -0.00000  -0.00000  -0.00000   0.00000
 273  H 2   f 4     -0.00000   0.00009   0.00000   0.00000  -0.00000   0.00000
 274  H 2   f 5      0.00000   0.00002  -0.00000  -0.00000  -0.00000  -0.00000
 275  H 2   f 6      0.00000   0.00012   0.00000   0.00000  -0.00001  -0.00000
 276  H 2   f 7      0.00000   0.00008   0.00000   0.00000  -0.00002  -0.00000
 277  H 2   f 1     -0.00000  -0.00094  -0.00002  -0.00000  -0.00001   0.00001
 278  H 2   f 2     -0.00000   0.00016   0.00000   0.00000  -0.00002  -0.00000
 279  H 2   f 3     -0.00001  -0.00066  -0.00001  -0.00000   0.00004   0.00001
 280  H 2   f 4      0.00001   0.00048   0.00002   0.00000  -0.00002   0.00000
 281  H 2   f 5     -0.00000   0.00007   0.00000   0.00000   0.00000   0.00001
 282  H 2   f 6      0.00000   0.00058   0.00002   0.00000   0.00002   0.00001
 283  H 2   f 7     -0.00001   0.00042   0.00000   0.00000  -0.00001   0.00001
 284  H 2   g 1     -0.00000   0.00008   0.00000   0.00000  -0.00000   0.00000
 285  H 2   g 2      0.00000   0.00010   0.00000   0.00000   0.00000   0.00000
 286  H 2   g 3     -0.00000   0.00002  -0.00000   0.00000   0.00000   0.00000
 287  H 2   g 4      0.00000   0.00011   0.00000   0.00000  -0.00000   0.00000
 288  H 2   g 5     -0.00000   0.00005   0.00000   0.00000   0.00000  -0.00000
 289  H 2   g 6      0.00000  -0.00001  -0.00000  -0.00000   0.00000  -0.00000
 290  H 2   g 7      0.00000   0.00008   0.00000   0.00000  -0.00000  -0.00000
 291  H 2   g 8     -0.00000  -0.00003  -0.00000  -0.00000   0.00001  -0.00000
 292  H 2   g 9      0.00000   0.00013   0.00000   0.00000   0.00000  -0.00000
 293  H 3   s       -0.00001  -0.00000   0.00000   0.00000  -0.00023  -0.00000
 294  H 3   s       -0.00001   0.00014   0.00001   0.00000  -0.00137  -0.00008
 295  H 3   s        0.00102  -0.00174  -0.00028  -0.00000   0.01110   0.00179
 296  H 3   s        0.00164  -0.00070  -0.00036  -0.00000   0.00598  -0.00012
 297  H 3   s        0.00055  -0.00008   0.00004  -0.00000  -0.00026  -0.00014
 298  H 3   px       0.00002  -0.00000  -0.00000   0.00000  -0.00016  -0.00000
 299  H 3   py      -0.00001   0.00000  -0.00000  -0.00000   0.00018  -0.00000
 300  H 3   pz      -0.00000   0.00000  -0.00000   0.00000   0.00004   0.00001
 301  H 3   px      -0.00007   0.00002   0.00001  -0.00000   0.00017  -0.00000
 302  H 3   py       0.00003  -0.00004   0.00000   0.00000  -0.00030   0.00001
 303  H 3   pz       0.00001  -0.00001  -0.00000  -0.00000  -0.00004  -0.00004
 304  H 3   px       0.00036  -0.00052  -0.00011  -0.00000   0.00635   0.00068
 305  H 3   py      -0.00027   0.00056   0.00009   0.00000  -0.00594  -0.00044
 306  H 3   pz      -0.00000   0.00014   0.00004   0.00000  -0.00159   0.00015
 307  H 3   px       0.00099  -0.00045   0.00011  -0.00000   0.00304  -0.00002
 308  H 3   py      -0.00066   0.00017   0.00011   0.00000  -0.00307   0.00006
 309  H 3   pz       0.00020   0.00009   0.00008   0.00000  -0.00067   0.00025
 310  H 3   d 1     -0.00001  -0.00000  -0.00000  -0.00000   0.00013   0.00002
 311  H 3   d 2     -0.00001   0.00000  -0.00000   0.00000  -0.00003   0.00000
 312  H 3   d 3      0.00000  -0.00001   0.00000  -0.00000   0.00005  -0.00000
 313  H 3   d 4      0.00001  -0.00000  -0.00000  -0.00000   0.00002  -0.00000
 314  H 3   d 5     -0.00001  -0.00000  -0.00000  -0.00000  -0.00001  -0.00000
 315  H 3   d 1     -0.00001   0.00007   0.00002   0.00000  -0.00228  -0.00014
 316  H 3   d 2      0.00004  -0.00003  -0.00000  -0.00000   0.00055  -0.00001
 317  H 3   d 3     -0.00004   0.00008  -0.00001   0.00000  -0.00118  -0.00003
 318  H 3   d 4     -0.00004   0.00003   0.00002   0.00000  -0.00049   0.00001
 319  H 3   d 5      0.00005  -0.00001   0.00002   0.00000  -0.00008   0.00005
 320  H 3   d 1     -0.00016   0.00024   0.00001   0.00000  -0.00326  -0.00001
 321  H 3   d 2     -0.00016  -0.00005  -0.00003  -0.00000   0.00079  -0.00015
 322  H 3   d 3      0.00004   0.00002   0.00004   0.00000  -0.00173  -0.00007
 323  H 3   d 4      0.00012   0.00005  -0.00000   0.00000  -0.00083  -0.00000
 324  H 3   d 5     -0.00018  -0.00007  -0.00005   0.00000   0.00018   0.00016
 325  H 3   f 1     -0.00000   0.00001  -0.00000   0.00000  -0.00017  -0.00002
 326  H 3   f 2     -0.00000  -0.00000  -0.00000  -0.00000   0.00010   0.00000
 327  H 3   f 3      0.00000  -0.00001   0.00000  -0.00000   0.00010   0.00000
 328  H 3   f 4     -0.00000  -0.00000   0.00000  -0.00000   0.00008  -0.00000
 329  H 3   f 5      0.00000   0.00000   0.00000   0.00000  -0.00013  -0.00000
 330  H 3   f 6      0.00001   0.00000  -0.00000  -0.00000  -0.00001   0.00001
 331  H 3   f 7     -0.00001   0.00000  -0.00000   0.00000  -0.00018  -0.00001
 332  H 3   f 1     -0.00002   0.00004   0.00001   0.00000  -0.00080  -0.00003
 333  H 3   f 2      0.00003  -0.00002  -0.00000  -0.00000   0.00047  -0.00001
 334  H 3   f 3     -0.00000  -0.00000  -0.00000  -0.00000   0.00061  -0.00003
 335  H 3   f 4      0.00003  -0.00001  -0.00001  -0.00000   0.00034  -0.00001
 336  H 3   f 5     -0.00001   0.00002  -0.00001   0.00000  -0.00055  -0.00000
 337  H 3   f 6     -0.00006   0.00001   0.00001  -0.00000   0.00007  -0.00004
 338  H 3   f 7      0.00001   0.00002   0.00001   0.00000  -0.00095   0.00002
 339  H 3   g 1      0.00000   0.00000  -0.00000  -0.00000   0.00002  -0.00000
 340  H 3   g 2      0.00000  -0.00000  -0.00000  -0.00000   0.00004   0.00000
 341  H 3   g 3     -0.00000  -0.00000   0.00000   0.00000   0.00009  -0.00000
 342  H 3   g 4      0.00000   0.00000   0.00000   0.00000  -0.00005   0.00000
 343  H 3   g 5     -0.00000  -0.00000   0.00000   0.00000   0.00006  -0.00000
 344  H 3   g 6     -0.00000  -0.00000  -0.00000  -0.00000   0.00005  -0.00000
 345  H 3   g 7      0.00000   0.00000  -0.00000  -0.00000  -0.00000  -0.00001
 346  H 3   g 8      0.00000  -0.00000   0.00000  -0.00000   0.00005   0.00000
 347  H 3   g 9     -0.00000   0.00000   0.00000   0.00000  -0.00014  -0.00000
 348  H 4   s        0.00000  -0.00001  -0.00000  -0.00000  -0.00027  -0.00002
 349  H 4   s        0.00009   0.00006  -0.00003  -0.00000  -0.00155   0.00013
 350  H 4   s       -0.00138   0.00023   0.00033   0.00000   0.01422   0.00214
 351  H 4   s       -0.00132  -0.00064  -0.00016   0.00000   0.00377   0.00012
 352  H 4   s       -0.00033  -0.00004   0.00012   0.00000  -0.00025   0.00030
 353  H 4   px      -0.00000   0.00001  -0.00000  -0.00000  -0.00016  -0.00001
 354  H 4   py      -0.00000   0.00001  -0.00000  -0.00000  -0.00019  -0.00001
 355  H 4   pz      -0.00000  -0.00000  -0.00000  -0.00000   0.00002  -0.00000
 356  H 4   px       0.00001   0.00001   0.00001  -0.00000   0.00023   0.00008
 357  H 4   py       0.00002  -0.00003   0.00001  -0.00000   0.00034   0.00005
 358  H 4   pz       0.00001   0.00001   0.00000   0.00000  -0.00004   0.00001
 359  H 4   px      -0.00009  -0.00031   0.00019   0.00000   0.00679   0.00018
 360  H 4   py      -0.00065   0.00019  -0.00004   0.00000   0.00843   0.00084
 361  H 4   pz      -0.00013   0.00018   0.00001  -0.00000  -0.00049  -0.00006
 362  H 4   px      -0.00031   0.00024   0.00047   0.00000   0.00211  -0.00026
 363  H 4   py      -0.00064  -0.00043   0.00012   0.00000   0.00256   0.00058
 364  H 4   pz      -0.00007   0.00038   0.00007  -0.00000  -0.00004  -0.00007
 365  H 4   d 1     -0.00000  -0.00000  -0.00001  -0.00000  -0.00014   0.00000
 366  H 4   d 2      0.00000  -0.00001   0.00000   0.00000   0.00003  -0.00000
 367  H 4   d 3     -0.00000   0.00002   0.00000   0.00000   0.00006  -0.00000
 368  H 4   d 4      0.00000   0.00000  -0.00000   0.00000   0.00002   0.00001
 369  H 4   d 5     -0.00001   0.00004  -0.00000   0.00000   0.00000   0.00000
 370  H 4   d 1     -0.00002  -0.00000   0.00005   0.00000   0.00266   0.00010
 371  H 4   d 2     -0.00002   0.00007   0.00001  -0.00000  -0.00029   0.00001
 372  H 4   d 3      0.00004  -0.00009  -0.00003  -0.00000  -0.00147  -0.00006
 373  H 4   d 4     -0.00002   0.00002   0.00001  -0.00000  -0.00021  -0.00002
 374  H 4   d 5      0.00008  -0.00028   0.00002  -0.00000  -0.00050  -0.00009
 375  H 4   d 1     -0.00015  -0.00012   0.00005   0.00000   0.00372   0.00000
 376  H 4   d 2     -0.00006   0.00010   0.00002  -0.00000  -0.00015   0.00007
 377  H 4   d 3      0.00011   0.00015   0.00002  -0.00000  -0.00212   0.00000
 378  H 4   d 4     -0.00013   0.00017  -0.00002  -0.00000  -0.00006  -0.00009
 379  H 4   d 5      0.00028   0.00005   0.00019  -0.00000  -0.00117  -0.00031
 380  H 4   f 1     -0.00000  -0.00000   0.00000   0.00000   0.00013  -0.00000
 381  H 4   f 2     -0.00000   0.00001   0.00000  -0.00000  -0.00003  -0.00000
 382  H 4   f 3      0.00001   0.00001  -0.00000  -0.00000  -0.00015  -0.00001
 383  H 4   f 4      0.00000   0.00000  -0.00000   0.00000   0.00004   0.00000
 384  H 4   f 5     -0.00000   0.00001  -0.00000  -0.00000  -0.00014  -0.00000
 385  H 4   f 6      0.00000   0.00001  -0.00000   0.00000   0.00001  -0.00000
 386  H 4   f 7      0.00001   0.00000   0.00000  -0.00000  -0.00025  -0.00001
 387  H 4   f 1      0.00006  -0.00020   0.00005   0.00000   0.00058  -0.00003
 388  H 4   f 2     -0.00003   0.00004  -0.00000  -0.00000  -0.00017   0.00000
 389  H 4   f 3      0.00002  -0.00010  -0.00000  -0.00000  -0.00080  -0.00000
 390  H 4   f 4      0.00002  -0.00005  -0.00000   0.00000   0.00013  -0.00002
 391  H 4   f 5      0.00001  -0.00000  -0.00002  -0.00000  -0.00060   0.00000
 392  H 4   f 6     -0.00001  -0.00003  -0.00001  -0.00000   0.00006  -0.00005
 393  H 4   f 7      0.00004  -0.00010  -0.00001  -0.00000  -0.00123  -0.00006
 394  H 4   g 1      0.00001  -0.00003   0.00000  -0.00000  -0.00006  -0.00001
 395  H 4   g 2     -0.00000   0.00000  -0.00000  -0.00000  -0.00001  -0.00001
 396  H 4   g 3      0.00000  -0.00000  -0.00000  -0.00000  -0.00010  -0.00000
 397  H 4   g 4      0.00000  -0.00000  -0.00000   0.00000   0.00002  -0.00000
 398  H 4   g 5     -0.00000   0.00001   0.00000   0.00000   0.00007  -0.00000
 399  H 4   g 6      0.00000  -0.00000   0.00000   0.00000   0.00002  -0.00000
 400  H 4   g 7     -0.00000   0.00001  -0.00000   0.00000   0.00002  -0.00000
 401  H 4   g 8      0.00000  -0.00001  -0.00000   0.00000   0.00002  -0.00001
 402  H 4   g 9     -0.00000   0.00001  -0.00000  -0.00000  -0.00013  -0.00000
 403  O 3   s       -0.00000   0.00000  -0.00000  -0.97843  -0.00000   0.00000
 404  O 3   s        0.00000  -0.00000  -0.00000  -0.03085  -0.00000   0.00000
 405  O 3   s        0.00000   0.00000  -0.00000  -0.08493  -0.00000   0.00000
 406  O 3   s        0.00000  -0.00000   0.00000   0.01496   0.00000   0.00000
 407  O 3   s       -0.00000   0.00000   0.00000   0.01592   0.00000  -0.00000
 408  O 3   s       -0.00000   0.00000   0.00000   0.00273   0.00000  -0.00000
 409  O 3   px       0.00000   0.00000   0.00000   0.00089   0.00000   0.00000
 410  O 3   py      -0.00000   0.00000   0.00000   0.00031  -0.00000  -0.00000
 411  O 3   pz       0.00000  -0.00000   0.00000   0.00078   0.00000   0.00000
 412  O 3   px      -0.00000  -0.00000   0.00000   0.00042   0.00000  -0.00000
 413  O 3   py       0.00000  -0.00000   0.00000   0.00017   0.00000   0.00000
 414  O 3   pz      -0.00000   0.00000  -0.00000   0.00034  -0.00000  -0.00000
 415  O 3   px       0.00000   0.00000  -0.00000  -0.00621  -0.00000   0.00000
 416  O 3   py      -0.00000   0.00000  -0.00000  -0.00281  -0.00000  -0.00000
 417  O 3   pz       0.00000  -0.00000   0.00000  -0.00472   0.00000   0.00000
 418  O 3   px       0.00000   0.00000  -0.00000  -0.00103  -0.00000   0.00000
 419  O 3   py      -0.00000   0.00000  -0.00000  -0.00089  -0.00000  -0.00000
 420  O 3   pz       0.00000  -0.00000   0.00000  -0.00035   0.00000   0.00000
 421  O 3   px       0.00000  -0.00000  -0.00000  -0.00011  -0.00000   0.00000
 422  O 3   py      -0.00000   0.00000  -0.00000  -0.00010  -0.00000  -0.00000
 423  O 3   pz       0.00000  -0.00000   0.00000  -0.00003   0.00000   0.00000
 424  O 3   d 1     -0.00000   0.00000   0.00000  -0.00016  -0.00000  -0.00000
 425  O 3   d 2     -0.00000   0.00000   0.00000   0.00021   0.00000   0.00000
 426  O 3   d 3      0.00000  -0.00000  -0.00000   0.00000   0.00000   0.00000
 427  O 3   d 4      0.00000  -0.00000  -0.00000  -0.00007   0.00000  -0.00000
 428  O 3   d 5     -0.00000   0.00000   0.00000   0.00010   0.00000   0.00000
 429  O 3   d 1      0.00000   0.00000  -0.00000   0.00028  -0.00000   0.00000
 430  O 3   d 2     -0.00000   0.00000  -0.00000  -0.00031  -0.00000  -0.00000
 431  O 3   d 3      0.00000  -0.00000   0.00000  -0.00001   0.00000   0.00000
 432  O 3   d 4      0.00000   0.00000   0.00000   0.00014   0.00000   0.00000
 433  O 3   d 5      0.00000  -0.00000  -0.00000  -0.00015   0.00000  -0.00000
 434  O 3   d 1      0.00000  -0.00000   0.00000   0.00194   0.00000  -0.00000
 435  O 3   d 2      0.00000  -0.00000   0.00000  -0.00275   0.00000   0.00000
 436  O 3   d 3     -0.00000   0.00000  -0.00000  -0.00021  -0.00000  -0.00000
 437  O 3   d 4     -0.00000   0.00000  -0.00000   0.00025  -0.00000  -0.00000
 438  O 3   d 5      0.00000   0.00000   0.00000  -0.00162  -0.00000   0.00000
 439  O 3   d 1      0.00000  -0.00000   0.00000  -0.00019   0.00000  -0.00000
 440  O 3   d 2      0.00000  -0.00000   0.00000   0.00038   0.00000   0.00000
 441  O 3   d 3     -0.00000   0.00000  -0.00000  -0.00010  -0.00000  -0.00000
 442  O 3   d 4     -0.00000   0.00000  -0.00000  -0.00022  -0.00000  -0.00000
 443  O 3   d 5      0.00000   0.00000   0.00000   0.00013  -0.00000   0.00000
 444  O 3   f 1      0.00000   0.00000   0.00000   0.00003   0.00000   0.00000
 445  O 3   f 2      0.00000   0.00000  -0.00000  -0.00007   0.00000   0.00000
 446  O 3   f 3      0.00000   0.00000  -0.00000  -0.00014  -0.00000   0.00000
 447  O 3   f 4     -0.00000   0.00000  -0.00000   0.00004  -0.00000  -0.00000
 448  O 3   f 5     -0.00000   0.00000  -0.00000  -0.00001  -0.00000  -0.00000
 449  O 3   f 6     -0.00000  -0.00000  -0.00000  -0.00004   0.00000   0.00000
 450  O 3   f 7      0.00000   0.00000  -0.00000  -0.00011  -0.00000   0.00000
 451  O 3   f 1     -0.00000  -0.00000  -0.00000  -0.00026  -0.00000   0.00000
 452  O 3   f 2     -0.00000   0.00000   0.00000   0.00054  -0.00000  -0.00000
 453  O 3   f 3     -0.00000   0.00000   0.00000   0.00112  -0.00000  -0.00000
 454  O 3   f 4      0.00000   0.00000   0.00000  -0.00028   0.00000   0.00000
 455  O 3   f 5      0.00000  -0.00000   0.00000   0.00006   0.00000   0.00000
 456  O 3   f 6     -0.00000   0.00000   0.00000   0.00028  -0.00000  -0.00000
 457  O 3   f 7     -0.00000  -0.00000   0.00000   0.00086   0.00000  -0.00000
 458  O 3   f 1     -0.00000  -0.00000  -0.00000   0.00013  -0.00000   0.00000
 459  O 3   f 2     -0.00000   0.00000  -0.00000  -0.00018  -0.00000  -0.00000
 460  O 3   f 3     -0.00000   0.00000  -0.00000  -0.00046  -0.00000  -0.00000
 461  O 3   f 4      0.00000  -0.00000   0.00000   0.00007   0.00000   0.00000
 462  O 3   f 5      0.00000  -0.00000   0.00000   0.00002   0.00000   0.00000
 463  O 3   f 6     -0.00000   0.00000  -0.00000  -0.00014  -0.00000  -0.00000
 464  O 3   f 7      0.00000  -0.00000   0.00000  -0.00028   0.00000  -0.00000
 465  O 3   g 1     -0.00000   0.00000  -0.00000  -0.00004  -0.00000   0.00000
 466  O 3   g 2     -0.00000  -0.00000  -0.00000   0.00000  -0.00000  -0.00000
 467  O 3   g 3      0.00000   0.00000  -0.00000  -0.00012  -0.00000   0.00000
 468  O 3   g 4      0.00000  -0.00000  -0.00000  -0.00005   0.00000   0.00000
 469  O 3   g 5      0.00000  -0.00000   0.00000   0.00002   0.00000  -0.00000
 470  O 3   g 6     -0.00000  -0.00000   0.00000   0.00005   0.00000  -0.00000
 471  O 3   g 7      0.00000  -0.00000  -0.00000  -0.00003   0.00000   0.00000
 472  O 3   g 8      0.00000  -0.00000  -0.00000  -0.00002   0.00000   0.00000
 473  O 3   g 9     -0.00000   0.00000  -0.00000  -0.00007  -0.00000   0.00000
 474  O 3   g 1      0.00000   0.00000   0.00000  -0.00008  -0.00000   0.00000
 475  O 3   g 2      0.00000   0.00000  -0.00000   0.00007   0.00000  -0.00000
 476  O 3   g 3      0.00000   0.00000  -0.00000   0.00003   0.00000   0.00000
 477  O 3   g 4      0.00000  -0.00000   0.00000   0.00007   0.00000   0.00000
 478  O 3   g 5      0.00000  -0.00000   0.00000  -0.00004   0.00000   0.00000
 479  O 3   g 6     -0.00000   0.00000  -0.00000   0.00002  -0.00000  -0.00000
 480  O 3   g 7     -0.00000  -0.00000  -0.00000  -0.00005   0.00000   0.00000
 481  O 3   g 8     -0.00000  -0.00000   0.00000   0.00010   0.00000   0.00000
 482  O 3   g 9      0.00000   0.00000  -0.00000   0.00001  -0.00000  -0.00000
 483  O 3   h 1     -0.00000  -0.00000   0.00000   0.00006   0.00000  -0.00000
 484  O 3   h 2      0.00000  -0.00000   0.00000  -0.00004  -0.00000   0.00000
 485  O 3   h 3     -0.00000  -0.00000   0.00000  -0.00002  -0.00000   0.00000
 486  O 3   h 4     -0.00000   0.00000  -0.00000  -0.00000  -0.00000  -0.00000
 487  O 3   h 5     -0.00000   0.00000  -0.00000  -0.00001  -0.00000  -0.00000
 488  O 3   h 6     -0.00000   0.00000  -0.00000   0.00005   0.00000  -0.00000
 489  O 3   h 7      0.00000   0.00000  -0.00000  -0.00002  -0.00000   0.00000
 490  O 3   h 8      0.00000   0.00000  -0.00000   0.00005   0.00000  -0.00000
 491  O 3   h 9      0.00000   0.00000  -0.00000  -0.00000  -0.00000  -0.00000
 492  O 3   h10      0.00000   0.00000  -0.00000  -0.00003  -0.00000  -0.00000
 493  O 3   h11     -0.00000   0.00000   0.00000  -0.00001   0.00000   0.00000
 494  H 5   s       -0.00000  -0.00000   0.00000   0.00028   0.00000  -0.00000
 495  H 5   s        0.00000  -0.00000  -0.00000   0.00123   0.00000  -0.00000
 496  H 5   s       -0.00000   0.00000  -0.00000  -0.01154  -0.00000   0.00000
 497  H 5   s       -0.00000   0.00000  -0.00000  -0.00215  -0.00000   0.00000
 498  H 5   s       -0.00000   0.00000  -0.00000  -0.00014  -0.00000   0.00000
 499  H 5   px      -0.00000  -0.00000   0.00000   0.00014   0.00000  -0.00000
 500  H 5   py      -0.00000  -0.00000   0.00000   0.00019   0.00000  -0.00000
 501  H 5   pz       0.00000   0.00000  -0.00000  -0.00001  -0.00000   0.00000
 502  H 5   px       0.00000   0.00000  -0.00000  -0.00026  -0.00000   0.00000
 503  H 5   py       0.00000   0.00000  -0.00000  -0.00033  -0.00000  -0.00000
 504  H 5   pz      -0.00000  -0.00000   0.00000   0.00002   0.00000  -0.00000
 505  H 5   px      -0.00000   0.00000  -0.00000  -0.00547  -0.00000   0.00000
 506  H 5   py      -0.00000   0.00000  -0.00000  -0.00709  -0.00000   0.00000
 507  H 5   pz       0.00000  -0.00000   0.00000   0.00051   0.00000  -0.00000
 508  H 5   px      -0.00000   0.00000  -0.00000  -0.00162  -0.00000   0.00000
 509  H 5   py      -0.00000   0.00000  -0.00000  -0.00216  -0.00000   0.00000
 510  H 5   pz       0.00000   0.00000  -0.00000   0.00021   0.00000  -0.00000
 511  H 5   d 1      0.00000  -0.00000  -0.00000   0.00012   0.00000  -0.00000
 512  H 5   d 2     -0.00000   0.00000  -0.00000  -0.00001  -0.00000   0.00000
 513  H 5   d 3     -0.00000   0.00000   0.00000  -0.00006  -0.00000   0.00000
 514  H 5   d 4     -0.00000   0.00000   0.00000   0.00000  -0.00000   0.00000
 515  H 5   d 5     -0.00000   0.00000  -0.00000  -0.00003  -0.00000   0.00000
 516  H 5   d 1     -0.00000   0.00000  -0.00000  -0.00236  -0.00000   0.00000
 517  H 5   d 2      0.00000  -0.00000   0.00000   0.00023   0.00000  -0.00000
 518  H 5   d 3      0.00000  -0.00000   0.00000   0.00136   0.00000  -0.00000
 519  H 5   d 4      0.00000  -0.00000   0.00000   0.00009   0.00000  -0.00000
 520  H 5   d 5      0.00000  -0.00000   0.00000   0.00059   0.00000  -0.00000
 521  H 5   d 1     -0.00000   0.00000   0.00000  -0.00270  -0.00000   0.00000
 522  H 5   d 2      0.00000   0.00000  -0.00000   0.00028   0.00000  -0.00000
 523  H 5   d 3      0.00000  -0.00000   0.00000   0.00161   0.00000  -0.00000
 524  H 5   d 4      0.00000  -0.00000   0.00000   0.00023   0.00000  -0.00000
 525  H 5   d 5     -0.00000   0.00000   0.00000   0.00074   0.00000  -0.00000
 526  H 5   f 1      0.00000   0.00000   0.00000  -0.00010  -0.00000   0.00000
 527  H 5   f 2      0.00000  -0.00000   0.00000   0.00003   0.00000  -0.00000
 528  H 5   f 3      0.00000  -0.00000   0.00000   0.00015   0.00000  -0.00000
 529  H 5   f 4     -0.00000   0.00000  -0.00000  -0.00002  -0.00000   0.00000
 530  H 5   f 5     -0.00000  -0.00000   0.00000   0.00013   0.00000  -0.00000
 531  H 5   f 6     -0.00000   0.00000  -0.00000  -0.00001  -0.00000   0.00000
 532  H 5   f 7      0.00000  -0.00000   0.00000   0.00024   0.00000  -0.00000
 533  H 5   f 1     -0.00000   0.00000   0.00000  -0.00047  -0.00000   0.00000
 534  H 5   f 2      0.00000  -0.00000   0.00000   0.00014   0.00000  -0.00000
 535  H 5   f 3      0.00000  -0.00000   0.00000   0.00069   0.00000  -0.00000
 536  H 5   f 4     -0.00000   0.00000  -0.00000  -0.00012  -0.00000   0.00000
 537  H 5   f 5      0.00000  -0.00000  -0.00000   0.00050   0.00000  -0.00000
 538  H 5   f 6      0.00000  -0.00000  -0.00000  -0.00011  -0.00000   0.00000
 539  H 5   f 7      0.00000  -0.00000   0.00000   0.00107   0.00000  -0.00000
 540  H 5   g 1     -0.00000   0.00000   0.00000   0.00006   0.00000   0.00000
 541  H 5   g 2      0.00000  -0.00000  -0.00000  -0.00000  -0.00000  -0.00000
 542  H 5   g 3     -0.00000  -0.00000   0.00000   0.00009   0.00000  -0.00000
 543  H 5   g 4     -0.00000  -0.00000  -0.00000  -0.00002  -0.00000   0.00000
 544  H 5   g 5      0.00000   0.00000  -0.00000  -0.00006  -0.00000   0.00000
 545  H 5   g 6     -0.00000   0.00000  -0.00000  -0.00001  -0.00000   0.00000
 546  H 5   g 7     -0.00000   0.00000  -0.00000  -0.00002  -0.00000  -0.00000
 547  H 5   g 8     -0.00000  -0.00000  -0.00000  -0.00002  -0.00000   0.00000
 548  H 5   g 9     -0.00000  -0.00000  -0.00000   0.00011   0.00000  -0.00000
 549  H 6   s       -0.00000   0.00000  -0.00000   0.00019  -0.00000  -0.00000
 550  H 6   s       -0.00000   0.00000   0.00000   0.00164  -0.00000  -0.00000
 551  H 6   s        0.00000  -0.00000   0.00000  -0.00909   0.00000   0.00000
 552  H 6   s        0.00000  -0.00000   0.00000  -0.00138   0.00000   0.00000
 553  H 6   s       -0.00000  -0.00000   0.00000  -0.00010   0.00000   0.00000
 554  H 6   px       0.00000  -0.00000   0.00000   0.00005   0.00000  -0.00000
 555  H 6   py      -0.00000  -0.00000   0.00000  -0.00010   0.00000   0.00000
 556  H 6   pz      -0.00000   0.00000  -0.00000   0.00016  -0.00000  -0.00000
 557  H 6   px      -0.00000   0.00000  -0.00000   0.00001  -0.00000  -0.00000
 558  H 6   py       0.00000  -0.00000  -0.00000  -0.00000   0.00000   0.00000
 559  H 6   pz      -0.00000   0.00000   0.00000   0.00001  -0.00000  -0.00000
 560  H 6   px       0.00000  -0.00000   0.00000  -0.00196   0.00000   0.00000
 561  H 6   py      -0.00000   0.00000  -0.00000   0.00383  -0.00000  -0.00000
 562  H 6   pz       0.00000  -0.00000   0.00000  -0.00624   0.00000   0.00000
 563  H 6   px       0.00000  -0.00000   0.00000  -0.00051   0.00000   0.00000
 564  H 6   py      -0.00000   0.00000  -0.00000   0.00108  -0.00000  -0.00000
 565  H 6   pz       0.00000  -0.00000   0.00000  -0.00171   0.00000   0.00000
 566  H 6   d 1      0.00000  -0.00000  -0.00000  -0.00004   0.00000   0.00000
 567  H 6   d 2      0.00000  -0.00000   0.00000  -0.00016   0.00000   0.00000
 568  H 6   d 3     -0.00000   0.00000   0.00000   0.00011  -0.00000  -0.00000
 569  H 6   d 4     -0.00000   0.00000   0.00000   0.00009  -0.00000  -0.00000
 570  H 6   d 5      0.00000  -0.00000  -0.00000  -0.00003   0.00000   0.00000
 571  H 6   d 1     -0.00000   0.00000   0.00000   0.00052  -0.00000  -0.00000
 572  H 6   d 2     -0.00000   0.00000  -0.00000   0.00180  -0.00000  -0.00000
 573  H 6   d 3      0.00000  -0.00000  -0.00000  -0.00129   0.00000   0.00000
 574  H 6   d 4      0.00000  -0.00000   0.00000  -0.00099   0.00000   0.00000
 575  H 6   d 5     -0.00000   0.00000  -0.00000   0.00039  -0.00000  -0.00000
 576  H 6   d 1     -0.00000   0.00000  -0.00000   0.00068  -0.00000  -0.00000
 577  H 6   d 2     -0.00000   0.00000   0.00000   0.00209  -0.00000  -0.00000
 578  H 6   d 3      0.00000  -0.00000  -0.00000  -0.00150   0.00000   0.00000
 579  H 6   d 4      0.00000  -0.00000   0.00000  -0.00104   0.00000   0.00000
 580  H 6   d 5     -0.00000   0.00000   0.00000   0.00048  -0.00000  -0.00000
 581  H 6   f 1      0.00000  -0.00000   0.00000  -0.00000   0.00000   0.00000
 582  H 6   f 2     -0.00000   0.00000  -0.00000   0.00013  -0.00000  -0.00000
 583  H 6   f 3     -0.00000   0.00000  -0.00000   0.00022  -0.00000  -0.00000
 584  H 6   f 4      0.00000  -0.00000  -0.00000  -0.00005  -0.00000   0.00000
 585  H 6   f 5      0.00000  -0.00000   0.00000  -0.00012   0.00000   0.00000
 586  H 6   f 6     -0.00000   0.00000  -0.00000   0.00009  -0.00000  -0.00000
 587  H 6   f 7     -0.00000   0.00000   0.00000   0.00004  -0.00000  -0.00000
 588  H 6   f 1      0.00000  -0.00000  -0.00000  -0.00006   0.00000   0.00000
 589  H 6   f 2     -0.00000   0.00000  -0.00000   0.00057  -0.00000  -0.00000
 590  H 6   f 3     -0.00000   0.00000   0.00000   0.00107  -0.00000  -0.00000
 591  H 6   f 4      0.00000  -0.00000  -0.00000  -0.00021   0.00000   0.00000
 592  H 6   f 5      0.00000  -0.00000  -0.00000  -0.00059   0.00000   0.00000
 593  H 6   f 6     -0.00000   0.00000   0.00000   0.00040  -0.00000  -0.00000
 594  H 6   f 7     -0.00000   0.00000  -0.00000   0.00019  -0.00000  -0.00000
 595  H 6   g 1      0.00000  -0.00000  -0.00000  -0.00002   0.00000   0.00000
 596  H 6   g 2      0.00000   0.00000  -0.00000  -0.00001   0.00000   0.00000
 597  H 6   g 3     -0.00000   0.00000   0.00000   0.00012  -0.00000  -0.00000
 598  H 6   g 4     -0.00000   0.00000   0.00000   0.00013  -0.00000  -0.00000
 599  H 6   g 5     -0.00000   0.00000  -0.00000   0.00004  -0.00000  -0.00000
 600  H 6   g 6      0.00000  -0.00000  -0.00000  -0.00007   0.00000   0.00000
 601  H 6   g 7     -0.00000   0.00000   0.00000   0.00008  -0.00000  -0.00000
 602  H 6   g 8     -0.00000   0.00000   0.00000   0.00006  -0.00000  -0.00000
 603  H 6   g 9      0.00000   0.00000  -0.00000   0.00000  -0.00000  -0.00000
 604  O 4   s        0.00000  -0.00001  -0.00000  -0.00000  -0.00002   0.00003
 605  O 4   s        0.00000  -0.00001  -0.00000  -0.00000  -0.00001   0.00001
 606  O 4   s        0.00001  -0.00001  -0.00000  -0.00000  -0.00002   0.00002
 607  O 4   s       -0.00002   0.00004   0.00001   0.00000  -0.00008   0.00001
 608  O 4   s        0.00003   0.00001   0.00002  -0.00000   0.00098  -0.00023
 609  O 4   s        0.00021  -0.00023   0.00018  -0.00000   0.00137  -0.00034
 610  O 4   px       0.00000   0.00000   0.00000   0.00000  -0.00000  -0.00000
 611  O 4   py      -0.00000   0.00000  -0.00000   0.00000   0.00000  -0.00000
 612  O 4   pz       0.00000  -0.00000  -0.00000  -0.00000  -0.00000  -0.00000
 613  O 4   px      -0.00000  -0.00001   0.00000  -0.00000   0.00003  -0.00000
 614  O 4   py       0.00000   0.00001   0.00000   0.00000  -0.00004   0.00001
 615  O 4   pz      -0.00000   0.00000   0.00000  -0.00000   0.00000   0.00001
 616  O 4   px       0.00002   0.00017  -0.00001   0.00000  -0.00018   0.00003
 617  O 4   py      -0.00001  -0.00011  -0.00000  -0.00000   0.00032  -0.00008
 618  O 4   pz      -0.00000   0.00004   0.00000  -0.00000   0.00009  -0.00004
 619  O 4   px       0.00001   0.00016  -0.00013   0.00000  -0.00043   0.00012
 620  O 4   py       0.00004  -0.00017   0.00002  -0.00000   0.00086  -0.00021
 621  O 4   pz       0.00008  -0.00016   0.00003  -0.00000   0.00024   0.00002
 622  O 4   px      -0.00002   0.00007  -0.00001   0.00000  -0.00004   0.00004
 623  O 4   py       0.00002  -0.00002   0.00001  -0.00000   0.00014  -0.00001
 624  O 4   pz       0.00002  -0.00006   0.00003  -0.00000   0.00012  -0.00008
 625  O 4   d 1     -0.00000  -0.00000  -0.00000  -0.00000   0.00000   0.00000
 626  O 4   d 2      0.00000  -0.00000   0.00000  -0.00000  -0.00000  -0.00000
 627  O 4   d 3      0.00000  -0.00000  -0.00000  -0.00000   0.00000   0.00000
 628  O 4   d 4      0.00000  -0.00000  -0.00000   0.00000   0.00000   0.00000
 629  O 4   d 5      0.00000  -0.00000  -0.00000  -0.00000  -0.00000  -0.00000
 630  O 4   d 1     -0.00000   0.00000   0.00000  -0.00000  -0.00000  -0.00000
 631  O 4   d 2     -0.00000   0.00000  -0.00000   0.00000  -0.00000   0.00001
 632  O 4   d 3     -0.00000   0.00000  -0.00000   0.00000  -0.00000  -0.00001
 633  O 4   d 4     -0.00000   0.00001   0.00000  -0.00000   0.00000  -0.00000
 634  O 4   d 5     -0.00000   0.00000  -0.00000  -0.00000   0.00001  -0.00000
 635  O 4   d 1      0.00001   0.00001  -0.00001   0.00000  -0.00008   0.00005
 636  O 4   d 2      0.00001  -0.00007   0.00001  -0.00000   0.00010  -0.00006
 637  O 4   d 3      0.00001  -0.00000   0.00001   0.00000  -0.00006   0.00004
 638  O 4   d 4      0.00001   0.00007  -0.00001   0.00000  -0.00005   0.00004
 639  O 4   d 5      0.00001   0.00005   0.00000   0.00000  -0.00015   0.00001
 640  O 4   d 1     -0.00000  -0.00003  -0.00003   0.00000  -0.00013   0.00005
 641  O 4   d 2      0.00001  -0.00006  -0.00001  -0.00000   0.00008  -0.00002
 642  O 4   d 3      0.00000  -0.00010   0.00001   0.00000  -0.00009   0.00008
 643  O 4   d 4      0.00000   0.00001  -0.00004   0.00000  -0.00006   0.00007
 644  O 4   d 5      0.00002  -0.00004   0.00002   0.00000  -0.00022  -0.00003
 645  O 4   f 1      0.00000   0.00000  -0.00000  -0.00000   0.00000   0.00000
 646  O 4   f 2     -0.00000  -0.00000  -0.00000  -0.00000  -0.00000  -0.00000
 647  O 4   f 3     -0.00000   0.00000  -0.00000   0.00000   0.00000   0.00000
 648  O 4   f 4     -0.00000  -0.00000  -0.00000  -0.00000   0.00000   0.00000
 649  O 4   f 5     -0.00000  -0.00000  -0.00000  -0.00000  -0.00000  -0.00000
 650  O 4   f 6     -0.00000  -0.00000   0.00000  -0.00000   0.00000  -0.00000
 651  O 4   f 7     -0.00000   0.00000   0.00000  -0.00000  -0.00000   0.00000
 652  O 4   f 1     -0.00000  -0.00000   0.00000   0.00000  -0.00001  -0.00000
 653  O 4   f 2      0.00000   0.00001   0.00000   0.00000  -0.00001   0.00001
 654  O 4   f 3      0.00000  -0.00001   0.00000  -0.00000  -0.00002  -0.00001
 655  O 4   f 4      0.00000   0.00000   0.00000   0.00000  -0.00002   0.00000
 656  O 4   f 5      0.00000   0.00001   0.00000   0.00000   0.00001   0.00000
 657  O 4   f 6      0.00000   0.00002  -0.00000   0.00000  -0.00001   0.00001
 658  O 4   f 7     -0.00000  -0.00000  -0.00000  -0.00000   0.00002  -0.00001
 659  O 4   f 1      0.00000  -0.00001   0.00002   0.00000  -0.00002  -0.00000
 660  O 4   f 2      0.00000  -0.00001  -0.00001   0.00000   0.00001   0.00002
 661  O 4   f 3      0.00000  -0.00004  -0.00000  -0.00000  -0.00007   0.00001
 662  O 4   f 4     -0.00001  -0.00002   0.00001   0.00000   0.00002   0.00004
 663  O 4   f 5      0.00000  -0.00001  -0.00000   0.00000   0.00004   0.00004
 664  O 4   f 6      0.00001  -0.00001   0.00001   0.00000  -0.00005  -0.00001
 665  O 4   f 7      0.00000   0.00002  -0.00000  -0.00000   0.00005  -0.00002
 666  O 4   g 1     -0.00000  -0.00000  -0.00000  -0.00000  -0.00000  -0.00000
 667  O 4   g 2     -0.00000   0.00000  -0.00000   0.00000   0.00000   0.00000
 668  O 4   g 3      0.00000  -0.00000   0.00000   0.00000  -0.00000   0.00000
 669  O 4   g 4      0.00000   0.00000   0.00000   0.00000  -0.00000   0.00000
 670  O 4   g 5      0.00000  -0.00000  -0.00000  -0.00000  -0.00000   0.00000
 671  O 4   g 6     -0.00000   0.00000  -0.00000  -0.00000   0.00000  -0.00000
 672  O 4   g 7     -0.00000   0.00000  -0.00000   0.00000  -0.00000   0.00000
 673  O 4   g 8     -0.00000  -0.00000   0.00000  -0.00000   0.00000  -0.00000
 674  O 4   g 9     -0.00000   0.00000   0.00000   0.00000  -0.00000  -0.00000
 675  O 4   g 1      0.00000   0.00000  -0.00000   0.00000   0.00002  -0.00000
 676  O 4   g 2      0.00000  -0.00000   0.00000   0.00000  -0.00000  -0.00000
 677  O 4   g 3      0.00000   0.00000  -0.00000   0.00000   0.00002   0.00000
 678  O 4   g 4     -0.00000  -0.00001   0.00000  -0.00000  -0.00001   0.00000
 679  O 4   g 5     -0.00000   0.00000   0.00000   0.00000   0.00002   0.00000
 680  O 4   g 6     -0.00000  -0.00001   0.00000   0.00000   0.00001   0.00001
 681  O 4   g 7      0.00000  -0.00000   0.00000   0.00000   0.00001   0.00000
 682  O 4   g 8      0.00000   0.00000  -0.00000   0.00000   0.00001  -0.00000
 683  O 4   g 9      0.00000  -0.00000  -0.00000   0.00000   0.00000   0.00000
 684  O 4   h 1      0.00000  -0.00000  -0.00000   0.00000   0.00000   0.00000
 685  O 4   h 2      0.00000   0.00000  -0.00000   0.00000   0.00000  -0.00000
 686  O 4   h 3      0.00000  -0.00000   0.00000   0.00000   0.00000  -0.00000
 687  O 4   h 4     -0.00000   0.00000  -0.00000  -0.00000   0.00000  -0.00000
 688  O 4   h 5     -0.00000  -0.00000   0.00000   0.00000   0.00000   0.00000
 689  O 4   h 6     -0.00000   0.00000  -0.00000  -0.00000   0.00000  -0.00000
 690  O 4   h 7     -0.00000  -0.00000   0.00000  -0.00000   0.00000   0.00000
 691  O 4   h 8      0.00000  -0.00000   0.00000   0.00000   0.00000   0.00000
 692  O 4   h 9      0.00000  -0.00000  -0.00000   0.00000  -0.00000  -0.00000
 693  O 4   h10      0.00000  -0.00000  -0.00000   0.00000   0.00000   0.00000
 694  O 4   h11     -0.00000  -0.00000   0.00000  -0.00000  -0.00000  -0.00000
 695  H 7   s        0.00000  -0.00000  -0.00000   0.00000   0.00000   0.00000
 696  H 7   s       -0.00001   0.00008   0.00000   0.00000  -0.00002   0.00000
 697  H 7   s       -0.00005  -0.00023   0.00004  -0.00000   0.00034  -0.00007
 698  H 7   s       -0.00011  -0.00046   0.00000  -0.00000  -0.00053  -0.00020
 699  H 7   s        0.00002   0.00000   0.00000  -0.00000   0.00003   0.00000
 700  H 7   px      -0.00000   0.00000   0.00000  -0.00000   0.00000   0.00000
[...]
1114  H 11  d 1     -0.00025  -0.00000   0.00076   0.00031
1115  H 11  d 2      0.00007   0.00000   0.00006  -0.00019
1116  H 11  d 3     -0.00015   0.00000   0.00005   0.00003
1117  H 11  d 4     -0.00005   0.00000  -0.00013  -0.00020
1118  H 11  d 5      0.00008  -0.00000  -0.00025   0.00005
1119  H 11  d 1      0.00020   0.00000  -0.00539  -0.00256
1120  H 11  d 2     -0.00059  -0.00000  -0.00113   0.00047
1121  H 11  d 3     -0.00036   0.00000  -0.00070  -0.00036
1122  H 11  d 4      0.00100  -0.00000   0.00241   0.00158
1123  H 11  d 5      0.00133  -0.00000   0.00078  -0.00073
1124  H 11  d 1     -0.00525   0.00000  -0.02289  -0.00826
1125  H 11  d 2     -0.00010   0.00000  -0.00413   0.00171
1126  H 11  d 3     -0.00612   0.00000  -0.01792  -0.00877
1127  H 11  d 4      0.00632  -0.00000   0.00717  -0.00702
1128  H 11  d 5      0.00903  -0.00000   0.00514   0.00787
1129  H 11  f 1     -0.00020   0.00000   0.00004   0.00008
1130  H 11  f 2     -0.00003   0.00000  -0.00012  -0.00011
1131  H 11  f 3      0.00015  -0.00000  -0.00029  -0.00010
1132  H 11  f 4      0.00002   0.00000  -0.00009  -0.00007
1133  H 11  f 5     -0.00010   0.00000   0.00008   0.00008
1134  H 11  f 6     -0.00005  -0.00000  -0.00007   0.00003
1135  H 11  f 7      0.00012  -0.00000  -0.00013  -0.00013
1136  H 11  f 1      0.00098   0.00000  -0.00594  -0.00275
1137  H 11  f 2     -0.00061  -0.00000  -0.00160   0.00079
1138  H 11  f 3     -0.00093  -0.00000   0.00403   0.00166
1139  H 11  f 4     -0.00125   0.00000  -0.00128   0.00062
1140  H 11  f 5      0.00033   0.00000  -0.00336  -0.00187
1141  H 11  f 6      0.00157  -0.00000   0.00099  -0.00031
1142  H 11  f 7      0.00105  -0.00000  -0.00152  -0.00009
1143  H 11  g 1      0.00001   0.00000  -0.00028  -0.00010
1144  H 11  g 2     -0.00009   0.00000  -0.00013   0.00005
1145  H 11  g 3     -0.00007  -0.00000   0.00030   0.00012
1146  H 11  g 4      0.00004  -0.00000   0.00008  -0.00004
1147  H 11  g 5     -0.00005   0.00000   0.00019   0.00009
1148  H 11  g 6     -0.00012   0.00000  -0.00012   0.00007
1149  H 11  g 7      0.00000  -0.00000  -0.00002  -0.00004
1150  H 11  g 8      0.00006  -0.00000  -0.00006  -0.00003
1151  H 11  g 9      0.00016  -0.00000  -0.00036  -0.00009
1152  H 12  s       -0.00136   0.00000  -0.00994  -0.00438
1153  H 12  s       -0.00955   0.00000  -0.01494  -0.00548
1154  H 12  s        0.03764  -0.00000  -0.16885  -0.05878
1155  H 12  s        0.26774  -0.00000   0.16752  -0.00517
1156  H 12  s        0.33653  -0.00000  -1.10957  -0.57080
1157  H 12  px      -0.00023   0.00000   0.00003  -0.00006
1158  H 12  py      -0.00004  -0.00000   0.00207   0.00083
1159  H 12  pz       0.00051   0.00000  -0.00202  -0.00100
1160  H 12  px      -0.00001  -0.00000  -0.00036   0.00018
1161  H 12  py      -0.00138   0.00000  -0.00313  -0.00026
1162  H 12  pz      -0.00041  -0.00000   0.00216   0.00084
1163  H 12  px      -0.00270   0.00000   0.00561   0.00823
1164  H 12  py       0.01503  -0.00000   0.01351   0.00580
1165  H 12  pz      -0.01472   0.00000  -0.01491  -0.00830
1166  H 12  px       0.03233  -0.00000  -0.02652   0.02087
1167  H 12  py       0.00544  -0.00000   0.03037   0.02140
1168  H 12  pz      -0.10736   0.00000  -0.09057  -0.02197
1169  H 12  d 1      0.00002   0.00000  -0.00008  -0.00010
1170  H 12  d 2      0.00037  -0.00000  -0.00043  -0.00028
1171  H 12  d 3     -0.00014   0.00000   0.00017   0.00025
1172  H 12  d 4     -0.00008   0.00000   0.00044   0.00035
1173  H 12  d 5      0.00020  -0.00000  -0.00030  -0.00015
1174  H 12  d 1     -0.00054   0.00000   0.00105   0.00066
1175  H 12  d 2     -0.00352   0.00000   0.00375   0.00198
1176  H 12  d 3      0.00115  -0.00000  -0.00158  -0.00143
1177  H 12  d 4      0.00116  -0.00000  -0.00270  -0.00207
1178  H 12  d 5     -0.00199   0.00000   0.00191   0.00119
1179  H 12  d 1      0.00250  -0.00000   0.00006   0.00795
1180  H 12  d 2     -0.00985   0.00000  -0.01822  -0.00568
1181  H 12  d 3      0.01382  -0.00000   0.01585   0.00683
1182  H 12  d 4     -0.00550   0.00000   0.00562  -0.00352
1183  H 12  d 5      0.00116   0.00000  -0.00413  -0.00446
1184  H 12  f 1     -0.00014  -0.00000   0.00007   0.00008
1185  H 12  f 2      0.00016  -0.00000  -0.00016   0.00005
1186  H 12  f 3      0.00002  -0.00000  -0.00072  -0.00020
1187  H 12  f 4      0.00016  -0.00000  -0.00006   0.00008
1188  H 12  f 5     -0.00003   0.00000   0.00016   0.00003
1189  H 12  f 6      0.00014  -0.00000  -0.00025  -0.00029
1190  H 12  f 7      0.00005  -0.00000  -0.00012   0.00009
1191  H 12  f 1      0.00028   0.00000   0.00017  -0.00052
1192  H 12  f 2     -0.00050   0.00000  -0.00008  -0.00209
1193  H 12  f 3      0.00319  -0.00000   0.00411   0.00047
1194  H 12  f 4     -0.00143   0.00000  -0.00085  -0.00092
1195  H 12  f 5     -0.00005  -0.00000  -0.00054   0.00080
1196  H 12  f 6      0.00107  -0.00000   0.00063   0.00108
1197  H 12  f 7     -0.00020   0.00000  -0.00020  -0.00153
1198  H 12  g 1      0.00000   0.00000  -0.00005  -0.00007
1199  H 12  g 2      0.00005  -0.00000  -0.00002   0.00001
1200  H 12  g 3     -0.00003  -0.00000  -0.00003   0.00012
1201  H 12  g 4     -0.00018   0.00000  -0.00013  -0.00001
1202  H 12  g 5     -0.00001   0.00000   0.00005   0.00006
1203  H 12  g 6      0.00002  -0.00000   0.00005  -0.00003
1204  H 12  g 7     -0.00014   0.00000  -0.00003  -0.00000
1205  H 12  g 8      0.00001  -0.00000   0.00005   0.00013
1206  H 12  g 9      0.00001  -0.00000  -0.00001   0.00001
1207  O 7   s       -0.00091   0.00000   0.00137   0.00056
1208  O 7   s        0.00546   0.00000  -0.05709  -0.00546
1209  O 7   s       -0.00237   0.00000  -0.00300   0.00068
1210  O 7   s        0.02539   0.00000  -0.04161  -0.00523
1211  O 7   s       -0.02310  -0.00000  -0.10936  -0.03815
1212  O 7   s       -0.25690   0.00000  -0.62056  -0.16867
1213  O 7   px      -0.00937  -0.00000   0.01771   0.00431
1214  O 7   py       0.01817  -0.00000  -0.01696  -0.01052
1215  O 7   pz       0.00236   0.00000   0.00013   0.00392
1216  O 7   px      -0.01362   0.00000   0.03012   0.00359
1217  O 7   py       0.03049  -0.00000  -0.02516  -0.01588
1218  O 7   pz       0.00578   0.00000   0.00327   0.00599
1219  O 7   px      -0.03946  -0.00000   0.03105   0.03431
1220  O 7   py       0.05022  -0.00000  -0.03867  -0.03783
1221  O 7   pz      -0.00525  -0.00000  -0.01094   0.01928
1222  O 7   px      -0.09255  -0.00000  -0.03163   0.11065
1223  O 7   py       0.02523   0.00000  -0.11487  -0.09426
1224  O 7   pz      -0.07168   0.00000  -0.17651   0.04897
1225  O 7   px      -0.20068   0.00000   0.14087   0.18482
1226  O 7   py       0.07108   0.00000  -0.09728  -0.10284
1227  O 7   pz      -0.13804   0.00000   0.08077   0.08412
1228  O 7   d 1      0.00001  -0.00000   0.00009  -0.00003
1229  O 7   d 2     -0.00002   0.00000  -0.00030   0.00000
1230  O 7   d 3     -0.00010  -0.00000  -0.00021   0.00001
1231  O 7   d 4     -0.00003   0.00000  -0.00032  -0.00010
1232  O 7   d 5     -0.00005   0.00000  -0.00004   0.00006
1233  O 7   d 1     -0.00065   0.00000  -0.00157  -0.00015
1234  O 7   d 2     -0.00015   0.00000   0.00092   0.00013
1235  O 7   d 3      0.00017   0.00000   0.00077  -0.00022
1236  O 7   d 4      0.00076  -0.00000   0.00285   0.00015
1237  O 7   d 5     -0.00010  -0.00000   0.00068   0.00004
1238  O 7   d 1     -0.00793  -0.00000   0.00402   0.01307
1239  O 7   d 2     -0.00215   0.00000  -0.00937   0.00319
1240  O 7   d 3     -0.01036  -0.00000  -0.00858   0.00945
1241  O 7   d 4     -0.01040   0.00000  -0.01454   0.00438
1242  O 7   d 5     -0.00403   0.00000  -0.00238   0.00435
1243  O 7   d 1     -0.02313  -0.00000   0.03633   0.04615
1244  O 7   d 2     -0.00360   0.00000  -0.01584   0.00339
1245  O 7   d 3     -0.03581   0.00000  -0.00365   0.02886
1246  O 7   d 4     -0.06576   0.00000  -0.03763   0.02403
1247  O 7   d 5     -0.02537   0.00000  -0.00125   0.01436
1248  O 7   f 1      0.00003   0.00000  -0.00003  -0.00003
1249  O 7   f 2      0.00010   0.00000  -0.00014  -0.00008
1250  O 7   f 3      0.00005   0.00000  -0.00010  -0.00008
1251  O 7   f 4      0.00009   0.00000  -0.00001  -0.00002
1252  O 7   f 5     -0.00001  -0.00000   0.00036  -0.00002
1253  O 7   f 6     -0.00010   0.00000   0.00035   0.00005
1254  O 7   f 7     -0.00002   0.00000   0.00012   0.00005
1255  O 7   f 1      0.00041   0.00000  -0.00014  -0.00033
1256  O 7   f 2     -0.00052  -0.00000   0.00041   0.00037
1257  O 7   f 3     -0.00097  -0.00000   0.00039   0.00115
1258  O 7   f 4     -0.00039  -0.00000  -0.00010  -0.00012
1259  O 7   f 5      0.00015  -0.00000  -0.00242   0.00009
1260  O 7   f 6      0.00013  -0.00000  -0.00171   0.00011
1261  O 7   f 7      0.00081  -0.00000  -0.00087  -0.00100
1262  O 7   f 1     -0.00463   0.00000  -0.00750  -0.00197
1263  O 7   f 2     -0.01339   0.00000  -0.00017   0.00484
1264  O 7   f 3     -0.00719   0.00000   0.00688   0.00660
1265  O 7   f 4     -0.00749   0.00000  -0.00024   0.00140
1266  O 7   f 5     -0.00885   0.00000  -0.02583  -0.00212
1267  O 7   f 6     -0.00518   0.00000  -0.01191   0.00149
1268  O 7   f 7      0.00347   0.00000  -0.01990  -0.00794
1269  O 7   g 1     -0.00005  -0.00000   0.00015   0.00006
1270  O 7   g 2     -0.00003  -0.00000   0.00008   0.00006
1271  O 7   g 3      0.00012  -0.00000   0.00005  -0.00002
1272  O 7   g 4      0.00012   0.00000  -0.00010  -0.00006
1273  O 7   g 5      0.00003   0.00000   0.00003  -0.00004
1274  O 7   g 6     -0.00004  -0.00000   0.00019   0.00010
1275  O 7   g 7      0.00003  -0.00000   0.00018   0.00005
1276  O 7   g 8     -0.00012   0.00000   0.00017   0.00009
1277  O 7   g 9     -0.00013   0.00000  -0.00001   0.00007
1278  O 7   g 1      0.00064  -0.00000  -0.00209  -0.00076
1279  O 7   g 2      0.00020   0.00000  -0.00166  -0.00014
1280  O 7   g 3     -0.00040   0.00000  -0.00316  -0.00046
1281  O 7   g 4     -0.00131  -0.00000   0.00026   0.00047
1282  O 7   g 5      0.00058  -0.00000  -0.00124  -0.00077
1283  O 7   g 6      0.00002  -0.00000  -0.00333  -0.00036
1284  O 7   g 7     -0.00048   0.00000  -0.00327  -0.00014
1285  O 7   g 8      0.00089   0.00000  -0.00193  -0.00039
1286  O 7   g 9      0.00002  -0.00000   0.00201   0.00079
1287  O 7   h 1     -0.00010   0.00000   0.00041   0.00016
1288  O 7   h 2     -0.00003   0.00000  -0.00007   0.00004
1289  O 7   h 3     -0.00011  -0.00000   0.00002   0.00009
1290  O 7   h 4      0.00006   0.00000  -0.00021  -0.00002
1291  O 7   h 5      0.00007   0.00000  -0.00031  -0.00010
1292  O 7   h 6      0.00012  -0.00000   0.00009  -0.00005
1293  O 7   h 7     -0.00011  -0.00000   0.00007   0.00006
1294  O 7   h 8     -0.00007   0.00000  -0.00034   0.00002
1295  O 7   h 9     -0.00009   0.00000   0.00005   0.00008
1296  O 7   h10     -0.00009   0.00000  -0.00001   0.00002
1297  O 7   h11     -0.00003   0.00000  -0.00011  -0.00000
1298  H 13  s        0.00103  -0.00000   0.00521   0.00025
1299  H 13  s        0.01266  -0.00000   0.01277  -0.00887
1300  H 13  s       -0.04277  -0.00000   0.19386   0.14898
1301  H 13  s       -0.01954  -0.00000  -0.14818   0.22909
1302  H 13  s       -0.50836   0.00000   1.04881   0.36674
1303  H 13  px       0.00064   0.00000  -0.00217  -0.00053
1304  H 13  py      -0.00077  -0.00000   0.00242   0.00063
1305  H 13  pz      -0.00011  -0.00000  -0.00026   0.00006
1306  H 13  px       0.00142  -0.00000   0.00512  -0.00063
1307  H 13  py      -0.00023   0.00000  -0.00658  -0.00058
1308  H 13  pz       0.00161   0.00000  -0.00050  -0.00082
1309  H 13  px      -0.00835   0.00000  -0.00169   0.03380
1310  H 13  py      -0.00555   0.00000   0.02506  -0.02306
1311  H 13  pz      -0.02287   0.00000   0.02296   0.01933
1312  H 13  px      -0.00827  -0.00000  -0.04687   0.06036
1313  H 13  py       0.00962   0.00000   0.04814  -0.06847
1314  H 13  pz      -0.02274   0.00000  -0.00811   0.02524
1315  H 13  d 1     -0.00045   0.00000   0.00007   0.00036
1316  H 13  d 2     -0.00026   0.00000   0.00034   0.00013
1317  H 13  d 3     -0.00014  -0.00000  -0.00006   0.00012
1318  H 13  d 4      0.00052  -0.00000  -0.00047  -0.00028
1319  H 13  d 5      0.00026  -0.00000  -0.00029  -0.00022
1320  H 13  d 1      0.00235  -0.00000  -0.00261  -0.00527
1321  H 13  d 2      0.00213  -0.00000  -0.00414  -0.00214
1322  H 13  d 3      0.00042   0.00000  -0.00043  -0.00234
1323  H 13  d 4     -0.00382   0.00000   0.00531   0.00310
1324  H 13  d 5     -0.00159   0.00000   0.00350   0.00162
1325  H 13  d 1      0.00387  -0.00000   0.02890  -0.01236
1326  H 13  d 2      0.01242  -0.00000  -0.00447  -0.00940
1327  H 13  d 3      0.00018  -0.00000   0.01744  -0.00568
1328  H 13  d 4     -0.00884   0.00000   0.00137   0.00749
1329  H 13  d 5     -0.00366   0.00000   0.00795   0.00230
1330  H 13  f 1      0.00007  -0.00000  -0.00057  -0.00034
1331  H 13  f 2      0.00012   0.00000  -0.00056  -0.00023
1332  H 13  f 3     -0.00003   0.00000   0.00011   0.00018
1333  H 13  f 4      0.00012  -0.00000  -0.00041  -0.00020
1334  H 13  f 5     -0.00009   0.00000  -0.00006  -0.00010
1335  H 13  f 6     -0.00017   0.00000   0.00043   0.00014
1336  H 13  f 7     -0.00001   0.00000  -0.00021  -0.00017
1337  H 13  f 1      0.00181  -0.00000   0.00204  -0.00202
1338  H 13  f 2      0.00345  -0.00000  -0.00133  -0.00233
1339  H 13  f 3      0.00033   0.00000  -0.00360   0.00025
1340  H 13  f 4      0.00231  -0.00000  -0.00097  -0.00159
1341  H 13  f 5      0.00067  -0.00000   0.00220  -0.00106
1342  H 13  f 6      0.00024   0.00000  -0.00144  -0.00032
1343  H 13  f 7      0.00060   0.00000   0.00520  -0.00091
1344  H 13  g 1      0.00006  -0.00000  -0.00017  -0.00009
1345  H 13  g 2      0.00022   0.00000  -0.00019  -0.00016
1346  H 13  g 3      0.00002  -0.00000  -0.00030   0.00004
1347  H 13  g 4     -0.00017  -0.00000   0.00007   0.00013
1348  H 13  g 5      0.00003  -0.00000  -0.00019   0.00002
1349  H 13  g 6      0.00019   0.00000  -0.00015  -0.00015
1350  H 13  g 7      0.00003  -0.00000  -0.00013  -0.00004
1351  H 13  g 8      0.00016  -0.00000  -0.00008  -0.00012
1352  H 13  g 9      0.00012  -0.00000   0.00021  -0.00016
1353  H 14  s       -0.00088  -0.00000   0.00174   0.00028
1354  H 14  s       -0.00341  -0.00000   0.00556   0.00619
1355  H 14  s        0.14477  -0.00000   0.19511  -0.07671
1356  H 14  s        0.28413  -0.00000   0.19841  -0.08507
1357  H 14  s        0.55259  -0.00000  -0.17995  -0.24897
1358  H 14  px      -0.00017  -0.00000   0.00043  -0.00003
1359  H 14  py       0.00005  -0.00000   0.00008  -0.00005
1360  H 14  pz      -0.00004  -0.00000   0.00056  -0.00025
1361  H 14  px       0.00112   0.00000  -0.00051  -0.00030
1362  H 14  py      -0.00034   0.00000  -0.00065  -0.00019
1363  H 14  pz       0.00018   0.00000  -0.00214   0.00006
1364  H 14  px      -0.03631  -0.00000  -0.03065   0.01460
1365  H 14  py      -0.01438   0.00000  -0.03958   0.00392
1366  H 14  pz      -0.04225   0.00000  -0.04728   0.01669
1367  H 14  px      -0.01620  -0.00000  -0.04476   0.02481
1368  H 14  py      -0.06476   0.00000  -0.02519   0.03824
1369  H 14  pz      -0.06367  -0.00000  -0.03450   0.06931
1370  H 14  d 1     -0.00012  -0.00000  -0.00071   0.00010
1371  H 14  d 2     -0.00030   0.00000  -0.00034   0.00019
1372  H 14  d 3     -0.00018   0.00000  -0.00004   0.00025
1373  H 14  d 4     -0.00017  -0.00000  -0.00001   0.00035
1374  H 14  d 5      0.00014  -0.00000   0.00028  -0.00001
1375  H 14  d 1      0.00143   0.00000   0.00718  -0.00068
1376  H 14  d 2      0.00205  -0.00000   0.00724  -0.00114
1377  H 14  d 3      0.00237  -0.00000   0.00336  -0.00236
1378  H 14  d 4      0.00500   0.00000   0.00537  -0.00382
1379  H 14  d 5      0.00115   0.00000  -0.00106  -0.00082
1380  H 14  d 1      0.00905   0.00000  -0.00226  -0.00404
1381  H 14  d 2      0.00361   0.00000   0.00960  -0.00225
1382  H 14  d 3      0.00370   0.00000  -0.00920  -0.00598
1383  H 14  d 4      0.00978   0.00000  -0.00014  -0.00469
1384  H 14  d 5      0.00456  -0.00000  -0.00273  -0.00137
1385  H 14  f 1      0.00012  -0.00000  -0.00046  -0.00007
1386  H 14  f 2      0.00001  -0.00000  -0.00074  -0.00003
1387  H 14  f 3     -0.00009   0.00000  -0.00050  -0.00005
1388  H 14  f 4      0.00013   0.00000  -0.00016  -0.00010
1389  H 14  f 5     -0.00027   0.00000  -0.00076   0.00006
1390  H 14  f 6     -0.00022  -0.00000  -0.00030   0.00012
1391  H 14  f 7     -0.00019   0.00000  -0.00010   0.00011
1392  H 14  f 1     -0.00203  -0.00000   0.00012   0.00101
1393  H 14  f 2     -0.00227  -0.00000  -0.00238   0.00163
1394  H 14  f 3     -0.00028  -0.00000  -0.00145   0.00143
1395  H 14  f 4     -0.00011   0.00000   0.00266   0.00114
1396  H 14  f 5     -0.00150  -0.00000   0.00276   0.00271
1397  H 14  f 6     -0.00105  -0.00000   0.00263   0.00079
1398  H 14  f 7      0.00044  -0.00000   0.00281  -0.00014
1399  H 14  g 1      0.00008   0.00000  -0.00000  -0.00004
1400  H 14  g 2      0.00012   0.00000   0.00023  -0.00005
1401  H 14  g 3      0.00009  -0.00000   0.00023  -0.00012
1402  H 14  g 4     -0.00005  -0.00000   0.00003  -0.00005
1403  H 14  g 5     -0.00009  -0.00000  -0.00006   0.00005
1404  H 14  g 6      0.00004  -0.00000  -0.00023  -0.00016
1405  H 14  g 7      0.00007   0.00000  -0.00016  -0.00006
1406  H 14  g 8      0.00003   0.00000  -0.00028  -0.00002
1407  H 14  g 9      0.00001  -0.00000  -0.00021  -0.00002

          Ground-State Mulliken Net Atomic Charges

     Atom                 Charge (a.u.)
  ----------------------------------------
      1 O                    -0.774751
      2 O                    -0.557859
      3 H                     0.291735
      4 H                     0.298509
      5 H                     0.355300
      6 H                     0.404816
      7 O                    -0.576590
      8 H                     0.283094
      9 H                     0.293495
     10 O                    -0.656714
     11 H                     0.290403
     12 H                     0.362529
     13 O                    -0.681561
     14 H                     0.278471
     15 H                     0.375025
     16 O                    -0.666563
     17 H                     0.335122
     18 H                     0.362890
     19 O                    -0.623515
     20 H                     0.259934
     21 H                     0.346229
  ----------------------------------------
  Sum of atomic charges =     0.000000

 -----------------------------------------------------------------
                    Cartesian Multipole Moments
 -----------------------------------------------------------------
    Charge (ESU x 10^10)
                 0.0000
    Dipole Moment (Debye)
         X      -5.9623      Y       2.2990      Z       3.0191
       Tot       7.0675
    Quadrupole Moments (Debye-Ang)
        XX     -36.3025     XY       7.3399     YY      -6.0446
        XZ      -1.5468     YZ      32.9064     ZZ     -55.2510
    Octopole Moments (Debye-Ang^2)
       XXX     -17.8920    XXY      79.8991    XYY    -570.6234
       YYY    -363.0606    XXZ      22.5133    XYZ      -7.7951
       YYZ    -316.0689    XZZ     -12.6503    YZZ     -28.8928
       ZZZ      23.3546
    Hexadecapole Moments (Debye-Ang^3)
      XXXX    -756.5342   XXXY      30.1080   XXYY   -2679.5332
      XYYY    8845.9994   YYYY   -2547.7546   XXXZ     -32.1827
      XXYZ      20.6581   XYYZ     128.0275   YYYZ    6165.9961
      XXZZ    -225.4934   XYZZ      49.4821   YYZZ   -2460.4202
      XZZZ     -32.9014   YZZZ     -40.4612   ZZZZ    -562.0004
 -----------------------------------------------------------------
 Total job time:  6384.88s(wall), 199535.57s(cpu) 
 Tue Dec 17 23:48:31 2024

        *************************************************************
        *                                                           *
        *  Thank you very much for using Q-Chem.  Have a nice day.  *
        *                                                           *
        *************************************************************


