                  Welcome to Q-Chem
     A Quantum Leap Into The Future Of Chemistry


 Q-Chem 6.2 (devel), Q-Chem, Inc., Pleasanton, CA (2024)

 E. Epifanovsky,  A. T. B. Gilbert,  Xintian Feng,  Joonho Lee,  Yuezhi Mao,  
 N. Mardirossian,  P. Pokhilko,  A. White,  M. Wormit,  M. P. Coons,  
 A. L. Dempwolff,  Zhengting Gan,  D. Hait,  P. R. Horn,  L. D. Jacobson,  
 I. Kaliman,  J. Kussmann,  A. W. Lange,  Ka Un Lao,  D. S. Levine,  Jie Liu,  
 S. C. McKenzie,  A. F. Morrison,  K. D. Nanda,  F. Plasser,  D. R. Rehn,  
 M. L. Vidal,  Zhi-Qiang You,  Ying Zhu,  Huseyin Aksu,  B. Alam,  
 B. Albrecht,  A. Aldossary,  E. Alguire,  J. H. Andersen,  
 J. E. Arias-Martinez,  V. Athavale,  D. Barton,  K. Begam,  A. Behn,  
 N. Bellonzi,  Y. A. Bernard,  E. J. Berquist,  H. Burton,  A. Carreras,  
 K. Carter-Fenk,  Mathew Chow,  Romit Chakraborty,  Chandrima Chakravarty,  
 Junhan Chen,  A. D. Chien,  K. D. Closser,  V. Cofer-Shabica,  L. Cunha,  
 S. Dasgupta,  Jia Deng,  Joseph Dickinson,  M. de Wergifosse,  
 M. Diedenhofen,  Hainam Do,  Wenjie Dou,  S. Ehlert,  Po-Tung Fang,  
 S. Fatehi,  Qingguo Feng,  Jonathan Fetherolf,  T. Friedhoff,  
 Thomas Froitzheim,  Sarai Folkestad,  B. Ganoe,  J. Gayvert,  Qinghui Ge,  
 G. Gidofalvi,  M. Gimferrer,  M. Goldey,  Montgomery Gray,  J. Gomes,  
 C. Gonzalez-Espinoza,  S. Gulania,  A. Gunina,  J. A. Gyamfi,  
 M. W. D. Hanson-Heine,  P. H. P. Harbach,  A. W. Hauser,  M. F. Herbst,  
 M. Hernandez Vera,  M. Hodecker,  Z. C. Holden,  S. Houck,  Xunkun Huang,  
 Kerwin Hui,  B. C. Huynh,  K. Ikeda,  M. Ivanov,  Nayanthara K. Jayadev,  
 Hyunjun Ji,  Zuxin Jin,  Hanjie Jiang,  Subrata Jana,  B. Kaduk,  
 S. Kaehler,  R. Kang,  K. Khistyaev,  Jaehoon Kim,  Yongbin Kim,  
 P. Klunzinger,  Z. Koczor-Benda,  Joong Hoon Koh,  D. Kosenkov,  
 Saikiran Kotaru,  L. Koulias,  T. Kowalczyk,  C. M. Krauter,  K. Kue,  
 A. Kunitsa,  T. Kus,  A. Landau,  K. V. Lawler,  D. Lefrancois,  S. Lehtola,  
 Rain Li,  Shaozhi Li,  Tao E. Li,  Yi-Pei Li,  Jiashu Liang,  M. Liebenthal,  
 Hung-Hsuan Lin,  You-Sheng Lin,  Fenglai Liu,  Kuan-Yu Liu,  Xiao Liu,  
 M. Loipersberger,  A. Luenser,  C. Malbon,  Aniket Mandal,  Manisha,  
 A. Manjanath,  P. Manohar,  E. Mansoor,  S. F. Manzer,  Shan-Ping Mao,  
 A. V. Marenich,  T. Markovich,  S. Mason,  F. Matz,  S. A. Maurer,  
 Samuel May,  Alexandra McIsaac,  P. F. McLaughlin,  M. F. S. J. Menger,  
 J.-M. Mewes,  S. A. Mewes,  P. Morgante,  Mohammad Mostafanejad,  
 Madhubani Mukherjee,  J. W. Mullinax,  Quyen Nguyen,  Avik Kumar Ojha,  
 K. J. Oosterbaan,  Eno Paenurk,  Xiaoliang Pan,  G. Paran,  V. Parravicini,  
 Alexander C. Paul,  Suranjan K. Paul,  F. Pavosevic,  Zheng Pei,  S. Prager,  
 E. I. Proynov,  E. Ramos,  B. Rana,  A. E. Rask,  A. Rettig,  R. M. Richard,  
 F. Rob,  E. Rossomme,  T. Scheele,  M. Scheurer,  M. Schneider,  
 P. E. Schneider,  Tim K. Schramm,  N. Sergueev,  S. M. Sharada,  
 Hengyuan Shen,  W. Skomorowski,  D. W. Small,  C. J. Stein,  
 Alistair J. Sterling,  Yingli Su,  Yu-Chuan Su,  E. J. Sundstrom,  
 J. Talbot,  Zhen Tao,  J. Thirman,  Hung-Yi Tsai,  T. Tsuchimochi,  
 N. M. Tubman,  C. Utku,  S. P. Veccham,  O. Vydrov,  Rahel Weiss,  
 J. Wenzel,  Jonathan Wong,  J. Witte,  H. Wu,  Yanze Wu,  A. Yamada,  
 Chou-Hsun Yang,  Kun Yao,  S. Yeganeh,  S. R. Yost,  Qi Yu,  A. Zech,  
 F. Zeller,  Chongxiao Zhao,  Igor Ying Zhang,  Xing Zhang,  Yu Zhang,  
 D. Zuev,  A. Aspuru-Guzik,  A. T. Bell,  N. A. Besley,  K. B. Bravaya,  
 B. R. Brooks,  D. Casanova,  Jeng-Da Chai,  Hsing-Ta Chen,  S. Coriani,  
 C. J. Cramer,  A. E. DePrince, III,  R. A. DiStasio Jr.,  A. Dreuw,  
 B. D. Dunietz,  T. R. Furlani,  W. A. Goddard III,  S. Grimme,  
 S. Hammes-Schiffer,  T. Head-Gordon,  W. J. Hehre,  Chao-Ping Hsu,  
 T.-C. Jagau,  Yousung Jung,  A. Klamt,  Jing Kong,  D. S. Lambrecht,  
 Xiangyuan Li,  WanZhen Liang,  N. J. Mayhall,  C. W. McCurdy,  J. B. Neaton,  
 T. Neudecker,  C. Ochsenfeld,  J. A. Parkhill,  R. Peverati,  
 V. A. Rassolov,  Haisheng Ren,  Yihan Shao,  L. V. Slipchenko,  
 R. P. Steele,  J. E. Subotnik,  A. J. W. Thom,  A. Tkatchenko,  
 D. G. Truhlar,  T. Van Voorhis,  Fan Wang,  T. A. Wesolowski,  K. B. Whaley,  
 H. L. Woodcock III,  P. M. Zimmerman,  S. Faraji,  P. M. W. Gill,  
 M. Head-Gordon,  J. M. Herbert,  A. I. Krylov

 Contributors to earlier versions of Q-Chem not listed above: 
 R. D. Adamson,  B. Austin,  R. Baer,  J. Baker,  G. J. O. Beran,  
 K. Brandhorst,  S. T. Brown,  E. F. C. Byrd,  Arup K. Chakraborty,  
 G. K. L. Chan,  Chun-Min Chang,  Yunqing Chen,  C.-L. Cheng,  
 Siu Hung Chien,  D. M. Chipman,  D. L. Crittenden,  H. Dachsel,  
 R. J. Doerksen,  A. D. Dutoi,  R. G. Edgar,  J. Fosso-Tande,  
 L. Fusti-Molnar,  D. Ghosh,  A. Ghysels,  A. Golubeva-Zadorozhnaya,  
 J. Gonthier,  M. S. Gordon,  S. R. Gwaltney,  G. Hawkins,  J. E. Herr,  
 A. Heyden,  S. Hirata,  E. G. Hohenstein,  G. Kedziora,  F. J. Keil,  
 C. Kelley,  Jihan Kim,  R. A. King,  R. Z. Khaliullin,  P. P. Korambath,  
 W. Kurlancheek,  A. Laurent,  A. M. Lee,  M. S. Lee,  S. V. Levchenko,  
 Ching Yeh Lin,  D. Liotard,  E. Livshits,  R. C. Lochan,  I. Lotan,  
 L. A. Martinez-Martinez,  P. E. Maslen,  N. Nair,  D. P. O'Neill,  
 D. Neuhauser,  E. Neuscamman,  C. M. Oana,  R. Olivares-Amaya,  R. Olson,  
 T. M. Perrine,  B. Peters,  P. A. Pieniazek,  A. Prociuk,  Y. M. Rhee,  
 J. Ritchie,  M. A. Rohrdanz,  E. Rosta,  N. J. Russ,  H. F. Schaefer III,  
 M. W. Schmidt,  N. E. Schultz,  S. Sharma,  N. Shenvi,  C. D. Sherrill,  
 A. C. Simmonett,  A. Sodt,  T. Stein,  D. Stuck,  K. S. Thanthiriwatte,  
 V. Vanovschi,  L. Vogt,  Tao Wang,  A. Warshel,  M. A. Watson,  
 C. F. Williams,  Q. Wu,  X. Xu,  Jun Yang,  W. Zhang,  Yan Zhao

   Please cite Q-Chem as follows:
  "Software for the frontiers of quantum chemistry:
   An overview of developments in the Q-Chem 5 package"
   J. Chem. Phys. 155, 084801 (2021)
   https://doi.org/10.1063/5.0055522 (open access)

 Q-Chem 6.2.2 for Intel X86 EM64T Linux

 Parts of Q-Chem use Armadillo 9.900.5 (Nocturnal Misbehaviour).
 http://arma.sourceforge.net/

 Q-Chem begins on Fri Dec 20 12:41:39 2024  

 Host: compute-0-12.local
0

     Scratch files written to /scratch/keith/A2D2_1//
 Processing $rem in /home/keith/software/qchem/qchem_622/config/preferences:
 Processing $rem in /home/keith/.qchemrc:

 Checking the input file for inconsistencies... 	...done.

--------------------------------------------------------------
User input:
--------------------------------------------------------------
$molecule
read
$end

$rem
method                    b3lyp 
basis                     cc-pv5z 
mem_total                 63000
mem_static                8000
thresh                    12
scf_convergence           8
xc_grid                   000075000302
max_scf_cycles            2000
symmetry                  false
sym_ignore                true
scf_guess                 read
mom_start                 1
cis_n_roots               100
cis_triplets              false
rpa                       false 
trnss                     true
trtype                    2
n_sol                     99
nto_pairs                 2
gui                       2
print_orbitals            true
state_analysis            true
$end

$solute 
5 1234 1235 1236 1237 1238 1239 1240 1241 1242 1243 1244 1245 1246 1247 1248 1249 1250 1251 1252 1253 1254 1255 1256 1257 1258 1259 1260 1261 1262 1263 1264 1265 1266 1267 1268 1269 1270 1271 1272 1273 1274 1275 1276 1277 1278 1279 1280 1281 1282 1283 1284 1285 1286 1287 1288 1289 1290 1291 1292 1293 1294 1295 1296 1297 1298 1299 1300 1301 1302 1303 1304 1305 1306 1307 1308 1309 1310 1311 1312 1313 1314 1315 1316 1317 1318 1319 1320 1321 1322 1323 1324 1325 1326 1327 1328 1329 1330 1331
$end
--------------------------------------------------------------
 ----------------------------------------------------------------
             Standard Nuclear Orientation (Angstroms)
    I     Atom           X                Y                Z
 ----------------------------------------------------------------
    1      O       0.8673700000     3.8245800000     0.1948500000
    2      O      -0.4763300000     1.4378800000     0.0318500000
    3      H      -1.4367300000     1.5455800000     0.0878500000
    4      H      -0.3213300000     0.4888800000     0.2588500000
    5      H       0.2293700000     4.5095800000     0.3418500000
    6      H       0.2849700000     3.0915800000     0.2518500000
    7      O       0.1456700000   -18.6104200000    -0.2211500000
    8      H      -0.4091300000   -19.3674200000    -0.1321500000
    9      H      -0.0800300000   -18.0930200000    -1.0171500000
   10      O       1.9443700000     2.0615800000    -1.9811500000
   11      H       2.6683700000     2.0055800000    -1.3401500000
   12      H       1.5693700000     2.8585800000    -1.5591500000
   13      O       2.2953700000     2.5135800000     2.2728500000
   14      H       2.9613700000     3.0325800000     2.7688500000
   15      H       1.9963700000     3.0275800000     1.4778500000
   16      O      -1.6253300000     4.9025800000     0.9488500000
   17      H      -2.5216300000     5.3115800000     0.8818500000
   18      H      -1.5917300000     4.2445800000     1.7258500000
   19      O      -2.9795300000     3.7955800000    -1.3521500000
   20      H      -3.6315300000     4.4625800000    -1.4691500000
   21      H      -2.4412300000     4.0665800000    -0.5941500000
 ----------------------------------------------------------------
 Nuclear Repulsion Energy =         294.65842812 hartrees
 There are       35 alpha and       35 beta electrons
 Requested basis set is cc-pV5Z
 There are 357 shells and 1407 basis functions

 Total QAlloc Memory Limit  63000 MB
 Mega-Array Size      7821 MB
 MEM_STATIC part      8000 MB

 A cutoff of  1.0D-12 yielded  31917 shell pairs
 There are    431577 function pairs (    719352 Cartesian)
 Smallest overlap matrix eigenvalue = 2.12E-05

 Scale SEOQF with 1.000000e-01/1.000000e-03/1.000000e-01

 Standard Electronic Orientation quadrupole field applied
 Nucleus-field energy     =    -0.0000000015 hartrees
 Guess MOs from SCF MO coefficient file

 -----------------------------------------------------------------------
  General SCF calculation program by
  Eric Jon Sundstrom, Paul Horn, Yuezhi Mao, Dmitri Zuev, Alec White,
  David Stuck, Shaama M.S., Shane Yost, Joonho Lee, David Small,
  Daniel Levine, Susi Lehtola, Hugh Burton, Evgeny Epifanovsky,
  Bang C. Huynh
 -----------------------------------------------------------------------
 Exchange:     0.2000 Hartree-Fock + 0.0800 Slater + 0.7200 B88
 Correlation:  0.1900 VWN1RPA + 0.8100 LYP
 Using Euler-Maclaurin-Lebedev (75,302) quadrature formula
 A restricted SCF calculation will be
 performed using DIIS
 SCF converges when DIIS error is below 1.0e-08
 ---------------------------------------
  Cycle       Energy         DIIS error
 ---------------------------------------
Maximum Overlap Method Active
 MOM overlap:    35.0 / 35
    1    -535.3220159275      6.75e-10  
    2    -535.3220159275      1.05e-09  Convergence criterion met
Maximum Overlap Method Active
 MOM overlap:    35.00 / 35
 ---------------------------------------
 SCF time:   CPU 23623.65s  wall 11839.00s 
 SCF   energy =  -535.32201593
 Total energy =  -535.32201593
 MAX_CIS_SUBSPACE fits in available memory
 Direct TDDFT/TDA calculation will be performed
 Exchange:     0.2000 Hartree-Fock + 0.0800 Slater + 0.7200 B88
 Correlation:  0.1900 VWN1RPA + 0.8100 LYP
 Using Euler-Maclaurin-Lebedev (75,302) quadrature formula
 Singlet excitation energies requested
 CIS energy converged when residual is below 10e- 6
   
 ***Using a Restricted Set of Single Excitations***
   
 RCIS calculation
   
 Excitations limited to defined orbital subspace
 -------------------------------------------------------------
              Orbitals in Truncated CIS space
 -------------------------------------------------------------
     512341235123612371238123912401241124212431244124512461247
  124812491250125112521253125412551256125712581259126012611262
  126312641265126612671268126912701271127212731274127512761277
  127812791280128112821283128412851286128712881289129012911292
  129312941295129612971298129913001301130213031304130513061307
  130813091310131113121313131413151316131713181319132013211322
  132313241325132613271328132913301331
   
    Number of Occupied Orbitals =    1  out of    35
    Number of Virtual Orbitals  =   98  out of  1372
 -------------------------------------------------------------
 Number of Roots adjusted to:          98
 ---------------------------------------------------
 Iter    Rts Conv    Rts Left    Ttl Dev     Max Dev
 ---------------------------------------------------
   1        98           0      0.010825    0.000443    Roots Converged
 ---------------------------------------------------

 ---------------------------------------------------
         TDDFT/TDA Excitation Energies              
 ---------------------------------------------------

 Excited state   1: excitation energy (eV) =    1016.3329
 Total energy for state   1:                  -497.97246910 au
    Multiplicity: Singlet
    Trans. Mom.: -0.0134 X  -0.0061 Y   0.0035 Z
    Strength   :     0.0056733201
    D(    5) --> V( 1199) amplitude = -0.5690
    D(    5) --> V( 1201) amplitude =  0.7432

 Excited state   2: excitation energy (eV) =    1016.9006
 Total energy for state   2:                  -497.95160640 au
    Multiplicity: Singlet
    Trans. Mom.:  0.0168 X  -0.0157 Y  -0.0024 Z
    Strength   :     0.0133321005
    D(    5) --> V( 1199) amplitude =  0.5698
    D(    5) --> V( 1201) amplitude =  0.4049
    D(    5) --> V( 1203) amplitude = -0.5118
    D(    5) --> V( 1205) amplitude = -0.3307
    D(    5) --> V( 1208) amplitude = -0.3184

 Excited state   3: excitation energy (eV) =    1018.7537
 Total energy for state   3:                  -497.88350931 au
    Multiplicity: Singlet
    Trans. Mom.:  0.0015 X   0.0018 Y   0.0000 Z
    Strength   :     0.0001377784
    D(    5) --> V( 1200) amplitude =  0.9200
    D(    5) --> V( 1201) amplitude = -0.3009

 Excited state   4: excitation energy (eV) =    1019.1772
 Total energy for state   4:                  -497.86794632 au
    Multiplicity: Singlet
    Trans. Mom.: -0.0043 X   0.0071 Y   0.0010 Z
    Strength   :     0.0017390204
    D(    5) --> V( 1199) amplitude =  0.5555
    D(    5) --> V( 1201) amplitude =  0.2566
    D(    5) --> V( 1203) amplitude =  0.7108
    D(    5) --> V( 1204) amplitude = -0.2438

 Excited state   5: excitation energy (eV) =    1019.6829
 Total energy for state   5:                  -497.84935910 au
    Multiplicity: Singlet
    Trans. Mom.: -0.0056 X  -0.0028 Y   0.0019 Z
    Strength   :     0.0010575253
    D(    5) --> V( 1200) amplitude =  0.3201
    D(    5) --> V( 1201) amplitude =  0.3030
    D(    5) --> V( 1204) amplitude =  0.3094
    D(    5) --> V( 1205) amplitude =  0.6391
    D(    5) --> V( 1208) amplitude =  0.3549

 Excited state   6: excitation energy (eV) =    1019.9661
 Total energy for state   6:                  -497.83895365 au
    Multiplicity: Singlet
    Trans. Mom.: -0.0007 X   0.0010 Y  -0.0001 Z
    Strength   :     0.0000359482
    D(    5) --> V( 1202) amplitude =  0.9624

 Excited state   7: excitation energy (eV) =    1020.6131
 Total energy for state   7:                  -497.81517568 au
    Multiplicity: Singlet
    Trans. Mom.: -0.0002 X   0.0008 Y  -0.0003 Z
    Strength   :     0.0000214544
    D(    5) --> V( 1203) amplitude =  0.3470
    D(    5) --> V( 1204) amplitude =  0.8959
    D(    5) --> V( 1205) amplitude = -0.2258

 Excited state   8: excitation energy (eV) =    1021.6014
 Total energy for state   8:                  -497.77885749 au
    Multiplicity: Singlet
    Trans. Mom.: -0.0065 X  -0.0060 Y   0.0024 Z
    Strength   :     0.0020734284
    D(    5) --> V( 1205) amplitude =  0.3940
    D(    5) --> V( 1206) amplitude =  0.8513
    D(    5) --> V( 1208) amplitude = -0.2699

 Excited state   9: excitation energy (eV) =    1022.2221
 Total energy for state   9:                  -497.75604836 au
    Multiplicity: Singlet
    Trans. Mom.:  0.0054 X  -0.0035 Y  -0.0004 Z
    Strength   :     0.0010372293
    D(    5) --> V( 1207) amplitude =  0.8857
    D(    5) --> V( 1209) amplitude =  0.3585

 Excited state  10: excitation energy (eV) =    1022.2977
 Total energy for state  10:                  -497.75326896 au
    Multiplicity: Singlet
    Trans. Mom.:  0.0002 X  -0.0000 Y  -0.0005 Z
    Strength   :     0.0000069745
    D(    5) --> V( 1205) amplitude = -0.3981
    D(    5) --> V( 1206) amplitude =  0.4107
    D(    5) --> V( 1208) amplitude =  0.7668

 Excited state  11: excitation energy (eV) =    1022.7302
 Total energy for state  11:                  -497.73737497 au
    Multiplicity: Singlet
    Trans. Mom.:  0.0150 X   0.0015 Y  -0.0017 Z
    Strength   :     0.0057444615
    D(    5) --> V( 1207) amplitude = -0.4368
    D(    5) --> V( 1209) amplitude =  0.7169
    D(    5) --> V( 1215) amplitude = -0.3791

 Excited state  12: excitation energy (eV) =    1022.9346
 Total energy for state  12:                  -497.72986313 au
    Multiplicity: Singlet
    Trans. Mom.: -0.0027 X  -0.0072 Y  -0.0004 Z
    Strength   :     0.0014986149
    D(    5) --> V( 1205) amplitude =  0.2126
    D(    5) --> V( 1206) amplitude = -0.2438
    D(    5) --> V( 1209) amplitude =  0.4338
    D(    5) --> V( 1214) amplitude = -0.5357
    D(    5) --> V( 1215) amplitude =  0.5419

 Excited state  13: excitation energy (eV) =    1024.2316
 Total energy for state  13:                  -497.68219725 au
    Multiplicity: Singlet
    Trans. Mom.:  0.0006 X   0.0001 Y  -0.0004 Z
    Strength   :     0.0000138082
    D(    5) --> V( 1210) amplitude =  0.9695

 Excited state  14: excitation energy (eV) =    1024.8344
 Total energy for state  14:                  -497.66004617 au
    Multiplicity: Singlet
    Trans. Mom.: -0.0054 X   0.0020 Y  -0.0001 Z
    Strength   :     0.0008321593
    D(    5) --> V( 1211) amplitude =  0.9749

 Excited state  15: excitation energy (eV) =    1025.3655
 Total energy for state  15:                  -497.64052715 au
    Multiplicity: Singlet
    Trans. Mom.:  0.0162 X  -0.0104 Y  -0.0005 Z
    Strength   :     0.0092870088
    D(    5) --> V( 1212) amplitude =  0.2598
    D(    5) --> V( 1214) amplitude = -0.3150
    D(    5) --> V( 1215) amplitude = -0.3442
    D(    5) --> V( 1217) amplitude =  0.6214
    D(    5) --> V( 1219) amplitude =  0.4182

 Excited state  16: excitation energy (eV) =    1026.0914
 Total energy for state  16:                  -497.61385402 au
    Multiplicity: Singlet
    Trans. Mom.: -0.0035 X   0.0042 Y   0.0003 Z
    Strength   :     0.0007607508
    D(    5) --> V( 1212) amplitude =  0.9276
    D(    5) --> V( 1219) amplitude = -0.2766

 Excited state  17: excitation energy (eV) =    1026.2421
 Total energy for state  17:                  -497.60831558 au
    Multiplicity: Singlet
    Trans. Mom.: -0.0004 X  -0.0073 Y   0.0019 Z
    Strength   :     0.0014329826
    D(    5) --> V( 1212) amplitude =  0.2511
    D(    5) --> V( 1214) amplitude =  0.4393
    D(    5) --> V( 1217) amplitude = -0.2344
    D(    5) --> V( 1219) amplitude =  0.6133
    D(    5) --> V( 1223) amplitude = -0.3703

 Excited state  18: excitation energy (eV) =    1027.2421
 Total energy for state  18:                  -497.57156562 au
    Multiplicity: Singlet
    Trans. Mom.: -0.0005 X   0.0020 Y   0.0009 Z
    Strength   :     0.0001312458
    D(    5) --> V( 1214) amplitude =  0.3770
    D(    5) --> V( 1215) amplitude =  0.4435
    D(    5) --> V( 1216) amplitude =  0.2241
    D(    5) --> V( 1217) amplitude =  0.4824
    D(    5) --> V( 1221) amplitude =  0.2795
    D(    5) --> V( 1224) amplitude = -0.4491
    D(    5) --> V( 1227) amplitude =  0.2199

 Excited state  19: excitation energy (eV) =    1027.2431
 Total energy for state  19:                  -497.57152683 au
    Multiplicity: Singlet
    Trans. Mom.:  0.0000 X  -0.0000 Y   0.0000 Z
    Strength   :     0.0000000000
    D(    5) --> V( 1213) amplitude =  1.0000

 Excited state  20: excitation energy (eV) =    1027.5653
 Total energy for state  20:                  -497.55968900 au
    Multiplicity: Singlet
    Trans. Mom.: -0.0008 X   0.0016 Y   0.0017 Z
    Strength   :     0.0001537314
    D(    5) --> V( 1214) amplitude = -0.3242
    D(    5) --> V( 1216) amplitude =  0.8820

 Excited state  21: excitation energy (eV) =    1028.2923
 Total energy for state  21:                  -497.53297248 au
    Multiplicity: Singlet
    Trans. Mom.:  0.0039 X  -0.0010 Y  -0.0021 Z
    Strength   :     0.0005213209
    D(    5) --> V( 1214) amplitude =  0.2200
    D(    5) --> V( 1215) amplitude =  0.2991
    D(    5) --> V( 1216) amplitude =  0.3041
    D(    5) --> V( 1217) amplitude =  0.3762
    D(    5) --> V( 1221) amplitude = -0.4223
    D(    5) --> V( 1224) amplitude =  0.5559
    D(    5) --> V( 1227) amplitude = -0.2262

 Excited state  22: excitation energy (eV) =    1028.9334
 Total energy for state  22:                  -497.50941060 au
    Multiplicity: Singlet
    Trans. Mom.: -0.0002 X  -0.0003 Y   0.0014 Z
    Strength   :     0.0000521512
    D(    5) --> V( 1218) amplitude =  0.9674

 Excited state  23: excitation energy (eV) =    1029.8071
 Total energy for state  23:                  -497.47730435 au
    Multiplicity: Singlet
    Trans. Mom.: -0.0035 X  -0.0070 Y   0.0002 Z
    Strength   :     0.0015556275
    D(    5) --> V( 1219) amplitude =  0.4275
    D(    5) --> V( 1222) amplitude = -0.2920
    D(    5) --> V( 1223) amplitude =  0.7356
    D(    5) --> V( 1224) amplitude = -0.2413

 Excited state  24: excitation energy (eV) =    1030.0811
 Total energy for state  24:                  -497.46723359 au
    Multiplicity: Singlet
    Trans. Mom.: -0.0013 X   0.0020 Y   0.0001 Z
    Strength   :     0.0001439804
    D(    5) --> V( 1220) amplitude =  0.9555

 Excited state  25: excitation energy (eV) =    1030.5286
 Total energy for state  25:                  -497.45078742 au
    Multiplicity: Singlet
    Trans. Mom.:  0.0015 X  -0.0010 Y  -0.0004 Z
    Strength   :     0.0000843714
    D(    5) --> V( 1221) amplitude =  0.3276
    D(    5) --> V( 1222) amplitude =  0.8363
    D(    5) --> V( 1223) amplitude =  0.3947

 Excited state  26: excitation energy (eV) =    1030.6464
 Total energy for state  26:                  -497.44645849 au
    Multiplicity: Singlet
    Trans. Mom.: -0.0020 X   0.0018 Y  -0.0002 Z
    Strength   :     0.0001820799
    D(    5) --> V( 1221) amplitude =  0.7718
    D(    5) --> V( 1222) amplitude = -0.3803
    D(    5) --> V( 1224) amplitude =  0.4449

 Excited state  27: excitation energy (eV) =    1032.5350
 Total energy for state  27:                  -497.37705289 au
    Multiplicity: Singlet
    Trans. Mom.: -0.0007 X   0.0021 Y   0.0003 Z
    Strength   :     0.0001278457
    D(    5) --> V( 1224) amplitude =  0.2253
    D(    5) --> V( 1225) amplitude =  0.9630

 Excited state  28: excitation energy (eV) =    1033.4822
 Total energy for state  28:                  -497.34224676 au
    Multiplicity: Singlet
    Trans. Mom.: -0.0026 X  -0.0013 Y  -0.0002 Z
    Strength   :     0.0002143048
    D(    5) --> V( 1226) amplitude =  0.9740

 Excited state  29: excitation energy (eV) =    1033.6215
 Total energy for state  29:                  -497.33712518 au
    Multiplicity: Singlet
    Trans. Mom.:  0.0005 X   0.0027 Y   0.0004 Z
    Strength   :     0.0001900216
    D(    5) --> V( 1224) amplitude =  0.3172
    D(    5) --> V( 1227) amplitude =  0.9065

 Excited state  30: excitation energy (eV) =    1035.1245
 Total energy for state  30:                  -497.28189151 au
    Multiplicity: Singlet
    Trans. Mom.:  0.0011 X  -0.0030 Y  -0.0003 Z
    Strength   :     0.0002579967
    D(    5) --> V( 1228) amplitude =  0.9549
    D(    5) --> V( 1234) amplitude = -0.2255

 Excited state  31: excitation energy (eV) =    1035.3495
 Total energy for state  31:                  -497.27362309 au
    Multiplicity: Singlet
    Trans. Mom.: -0.0017 X  -0.0112 Y   0.0001 Z
    Strength   :     0.0032377035
    D(    5) --> V( 1233) amplitude =  0.7523
    D(    5) --> V( 1234) amplitude =  0.5023
    D(    5) --> V( 1235) amplitude = -0.3327

 Excited state  32: excitation energy (eV) =    1035.7222
 Total energy for state  32:                  -497.25992748 au
    Multiplicity: Singlet
    Trans. Mom.:  0.0034 X   0.0143 Y  -0.0002 Z
    Strength   :     0.0054991371
    D(    5) --> V( 1233) amplitude = -0.5602
    D(    5) --> V( 1234) amplitude =  0.7487

 Excited state  33: excitation energy (eV) =    1036.2327
 Total energy for state  33:                  -497.24116806 au
    Multiplicity: Singlet
    Trans. Mom.: -0.0000 X  -0.0000 Y   0.0000 Z
    Strength   :     0.0000000000
    D(    5) --> V( 1229) amplitude =  1.0000

 Excited state  34: excitation energy (eV) =    1036.3928
 Total energy for state  34:                  -497.23528344 au
    Multiplicity: Singlet
    Trans. Mom.: -0.0000 X  -0.0000 Y   0.0000 Z
    Strength   :     0.0000000000
    D(    5) --> V( 1230) amplitude =  1.0000

 Excited state  35: excitation energy (eV) =    1036.7694
 Total energy for state  35:                  -497.22144164 au
    Multiplicity: Singlet
    Trans. Mom.:  0.0004 X   0.0014 Y  -0.0001 Z
    Strength   :     0.0000546339
    D(    5) --> V( 1231) amplitude =  0.9939

 Excited state  36: excitation energy (eV) =    1037.2963
 Total energy for state  36:                  -497.20207826 au
    Multiplicity: Singlet
    Trans. Mom.:  0.0004 X   0.0011 Y  -0.0002 Z
    Strength   :     0.0000362943
    D(    5) --> V( 1232) amplitude =  0.9868

 Excited state  37: excitation energy (eV) =    1040.5212
 Total energy for state  37:                  -497.08356748 au
    Multiplicity: Singlet
    Trans. Mom.:  0.0000 X  -0.0005 Y   0.0002 Z
    Strength   :     0.0000081963
    D(    5) --> V( 1234) amplitude =  0.3510
    D(    5) --> V( 1235) amplitude =  0.9108

 Excited state  38: excitation energy (eV) =    1040.8070
 Total energy for state  38:                  -497.07306544 au
    Multiplicity: Singlet
    Trans. Mom.: -0.0060 X   0.0087 Y   0.0007 Z
    Strength   :     0.0028647478
    D(    5) --> V( 1236) amplitude = -0.4921
    D(    5) --> V( 1237) amplitude =  0.7264
    D(    5) --> V( 1238) amplitude =  0.2294
    D(    5) --> V( 1248) amplitude =  0.2167

 Excited state  39: excitation energy (eV) =    1041.9963
 Total energy for state  39:                  -497.02935705 au
    Multiplicity: Singlet
    Trans. Mom.: -0.0024 X   0.0029 Y   0.0013 Z
    Strength   :     0.0004003930
    D(    5) --> V( 1236) amplitude =  0.8640
    D(    5) --> V( 1237) amplitude =  0.4589

 Excited state  40: excitation energy (eV) =    1043.2301
 Total energy for state  40:                  -496.98401821 au
    Multiplicity: Singlet
    Trans. Mom.: -0.0000 X  -0.0001 Y   0.0011 Z
    Strength   :     0.0000285911
    D(    5) --> V( 1237) amplitude = -0.3084
    D(    5) --> V( 1238) amplitude =  0.9497

 Excited state  41: excitation energy (eV) =    1044.0453
 Total energy for state  41:                  -496.95406033 au
    Multiplicity: Singlet
    Trans. Mom.: -0.0009 X  -0.0005 Y   0.0009 Z
    Strength   :     0.0000488110
    D(    5) --> V( 1239) amplitude =  0.9923

 Excited state  42: excitation energy (eV) =    1044.5691
 Total energy for state  42:                  -496.93481064 au
    Multiplicity: Singlet
    Trans. Mom.: -0.0004 X   0.0031 Y  -0.0002 Z
    Strength   :     0.0002576602
    D(    5) --> V( 1240) amplitude =  0.9855

 Excited state  43: excitation energy (eV) =    1044.9238
 Total energy for state  43:                  -496.92177637 au
    Multiplicity: Singlet
    Trans. Mom.:  0.0009 X  -0.0020 Y   0.0001 Z
    Strength   :     0.0001231933
    D(    5) --> V( 1241) amplitude =  0.9531

 Excited state  44: excitation energy (eV) =    1045.1154
 Total energy for state  44:                  -496.91473357 au
    Multiplicity: Singlet
    Trans. Mom.: -0.0028 X   0.0015 Y   0.0007 Z
    Strength   :     0.0002630713
    D(    5) --> V( 1242) amplitude =  0.9474

 Excited state  45: excitation energy (eV) =    1045.3924
 Total energy for state  45:                  -496.90455216 au
    Multiplicity: Singlet
    Trans. Mom.: -0.0050 X   0.0057 Y  -0.0019 Z
    Strength   :     0.0015727578
    D(    5) --> V( 1237) amplitude = -0.2961
    D(    5) --> V( 1241) amplitude =  0.2286
    D(    5) --> V( 1242) amplitude = -0.3082
    D(    5) --> V( 1244) amplitude =  0.5296
    D(    5) --> V( 1246) amplitude =  0.3785
    D(    5) --> V( 1248) amplitude =  0.4801

 Excited state  46: excitation energy (eV) =    1046.1950
 Total energy for state  46:                  -496.87506038 au
    Multiplicity: Singlet
    Trans. Mom.:  0.0014 X  -0.0021 Y   0.0005 Z
    Strength   :     0.0001722457
    D(    5) --> V( 1244) amplitude =  0.8092
    D(    5) --> V( 1246) amplitude = -0.4010
    D(    5) --> V( 1248) amplitude = -0.3747

 Excited state  47: excitation energy (eV) =    1046.2136
 Total energy for state  47:                  -496.87437479 au
    Multiplicity: Singlet
    Trans. Mom.: -0.0000 X  -0.0000 Y   0.0000 Z
    Strength   :     0.0000000000
    D(    5) --> V( 1243) amplitude =  1.0000

 Excited state  48: excitation energy (eV) =    1046.6489
 Total energy for state  48:                  -496.85837926 au
    Multiplicity: Singlet
    Trans. Mom.: -0.0012 X   0.0007 Y  -0.0002 Z
    Strength   :     0.0000508130
    D(    5) --> V( 1245) amplitude =  0.8178
    D(    5) --> V( 1246) amplitude =  0.4321
    D(    5) --> V( 1248) amplitude = -0.3513

 Excited state  49: excitation energy (eV) =    1047.0623
 Total energy for state  49:                  -496.84318678 au
    Multiplicity: Singlet
    Trans. Mom.:  0.0007 X  -0.0007 Y  -0.0001 Z
    Strength   :     0.0000231137
    D(    5) --> V( 1245) amplitude = -0.5514
    D(    5) --> V( 1246) amplitude =  0.6539
    D(    5) --> V( 1248) amplitude = -0.4874

 Excited state  50: excitation energy (eV) =    1047.8142
 Total energy for state  50:                  -496.81555416 au
    Multiplicity: Singlet
    Trans. Mom.: -0.0026 X   0.0029 Y   0.0000 Z
    Strength   :     0.0003913004
    D(    5) --> V( 1248) amplitude = -0.3288
    D(    5) --> V( 1249) amplitude =  0.7771
    D(    5) --> V( 1250) amplitude =  0.4632

 Excited state  51: excitation energy (eV) =    1048.1702
 Total energy for state  51:                  -496.80247188 au
    Multiplicity: Singlet
    Trans. Mom.: -0.0000 X   0.0000 Y  -0.0000 Z
    Strength   :     0.0000000000
    D(    5) --> V( 1247) amplitude =  1.0000

 Excited state  52: excitation energy (eV) =    1048.5030
 Total energy for state  52:                  -496.79024182 au
    Multiplicity: Singlet
    Trans. Mom.: -0.0009 X   0.0023 Y  -0.0002 Z
    Strength   :     0.0001511032
    D(    5) --> V( 1249) amplitude = -0.5382
    D(    5) --> V( 1250) amplitude =  0.8116

 Excited state  53: excitation energy (eV) =    1049.1417
 Total energy for state  53:                  -496.76677063 au
    Multiplicity: Singlet
    Trans. Mom.:  0.0011 X   0.0041 Y  -0.0018 Z
    Strength   :     0.0005516341
    D(    5) --> V( 1251) amplitude =  0.9473

 Excited state  54: excitation energy (eV) =    1049.8208
 Total energy for state  54:                  -496.74181179 au
    Multiplicity: Singlet
    Trans. Mom.:  0.0009 X   0.0002 Y   0.0015 Z
    Strength   :     0.0000788054
    D(    5) --> V( 1252) amplitude =  0.7588
    D(    5) --> V( 1255) amplitude = -0.3472
    D(    5) --> V( 1266) amplitude = -0.4669

 Excited state  55: excitation energy (eV) =    1049.9043
 Total energy for state  55:                  -496.73874570 au
    Multiplicity: Singlet
    Trans. Mom.: -0.0030 X   0.0010 Y  -0.0020 Z
    Strength   :     0.0003565226
    D(    5) --> V( 1252) amplitude =  0.5802
    D(    5) --> V( 1255) amplitude =  0.4116
    D(    5) --> V( 1264) amplitude =  0.2722
    D(    5) --> V( 1266) amplitude =  0.4317

 Excited state  56: excitation energy (eV) =    1050.4950
 Total energy for state  56:                  -496.71703534 au
    Multiplicity: Singlet
    Trans. Mom.:  0.0053 X  -0.0033 Y   0.0011 Z
    Strength   :     0.0010319314
    D(    5) --> V( 1252) amplitude =  0.2148
    D(    5) --> V( 1255) amplitude =  0.3369
    D(    5) --> V( 1257) amplitude = -0.3367
    D(    5) --> V( 1258) amplitude =  0.6161
    D(    5) --> V( 1267) amplitude = -0.3441

 Excited state  57: excitation energy (eV) =    1050.6948
 Total energy for state  57:                  -496.70969261 au
    Multiplicity: Singlet
    Trans. Mom.: -0.0027 X   0.0022 Y  -0.0005 Z
    Strength   :     0.0003246358
    D(    5) --> V( 1256) amplitude =  0.7394
    D(    5) --> V( 1258) amplitude = -0.3121
    D(    5) --> V( 1260) amplitude =  0.2306
    D(    5) --> V( 1264) amplitude = -0.2744
    D(    5) --> V( 1267) amplitude = -0.3046

 Excited state  58: excitation energy (eV) =    1050.7290
 Total energy for state  58:                  -496.70843906 au
    Multiplicity: Singlet
    Trans. Mom.: -0.0013 X   0.0008 Y   0.0001 Z
    Strength   :     0.0000600252
    D(    5) --> V( 1254) amplitude =  0.9408
    D(    5) --> V( 1255) amplitude =  0.2730

 Excited state  59: excitation energy (eV) =    1050.8076
 Total energy for state  59:                  -496.70554823 au
    Multiplicity: Singlet
    Trans. Mom.: -0.0007 X   0.0007 Y   0.0008 Z
    Strength   :     0.0000433506
    D(    5) --> V( 1254) amplitude = -0.2296
    D(    5) --> V( 1255) amplitude =  0.7156
    D(    5) --> V( 1266) amplitude = -0.5759

 Excited state  60: excitation energy (eV) =    1050.8350
 Total energy for state  60:                  -496.70454314 au
    Multiplicity: Singlet
    Trans. Mom.:  0.0000 X  -0.0000 Y  -0.0000 Z
    Strength   :     0.0000000000
    D(    5) --> V( 1253) amplitude =  1.0000

 Excited state  61: excitation energy (eV) =    1051.2500
 Total energy for state  61:                  -496.68929068 au
    Multiplicity: Singlet
    Trans. Mom.:  0.0019 X  -0.0023 Y  -0.0009 Z
    Strength   :     0.0002545273
    D(    5) --> V( 1256) amplitude =  0.4605
    D(    5) --> V( 1257) amplitude =  0.6812
    D(    5) --> V( 1258) amplitude =  0.5266

 Excited state  62: excitation energy (eV) =    1051.4314
 Total energy for state  62:                  -496.68262307 au
    Multiplicity: Singlet
    Trans. Mom.: -0.0013 X   0.0001 Y   0.0002 Z
    Strength   :     0.0000461384
    D(    5) --> V( 1256) amplitude = -0.4397
    D(    5) --> V( 1257) amplitude =  0.5986
    D(    5) --> V( 1258) amplitude = -0.2504
    D(    5) --> V( 1260) amplitude =  0.3178
    D(    5) --> V( 1264) amplitude = -0.3512
    D(    5) --> V( 1267) amplitude = -0.3413

 Excited state  63: excitation energy (eV) =    1052.3574
 Total energy for state  63:                  -496.64859392 au
    Multiplicity: Singlet
    Trans. Mom.:  0.0007 X  -0.0014 Y  -0.0063 Z
    Strength   :     0.0010843045
    D(    5) --> V( 1260) amplitude =  0.8030
    D(    5) --> V( 1264) amplitude =  0.3374
    D(    5) --> V( 1267) amplitude =  0.2361
    D(    5) --> V( 1270) amplitude = -0.3480

 Excited state  64: excitation energy (eV) =    1052.5052
 Total energy for state  64:                  -496.64316338 au
    Multiplicity: Singlet
    Trans. Mom.:  0.0000 X  -0.0000 Y   0.0000 Z
    Strength   :     0.0000000000
    D(    5) --> V( 1259) amplitude =  1.0000

 Excited state  65: excitation energy (eV) =    1053.8713
 Total energy for state  65:                  -496.59296173 au
    Multiplicity: Singlet
    Trans. Mom.: -0.0013 X   0.0008 Y   0.0055 Z
    Strength   :     0.0008503124
    D(    5) --> V( 1260) amplitude =  0.2158
    D(    5) --> V( 1261) amplitude =  0.5648
    D(    5) --> V( 1262) amplitude = -0.5435
    D(    5) --> V( 1270) amplitude =  0.4846

 Excited state  66: excitation energy (eV) =    1054.2826
 Total energy for state  66:                  -496.57784443 au
    Multiplicity: Singlet
    Trans. Mom.:  0.0010 X  -0.0001 Y  -0.0027 Z
    Strength   :     0.0002223732
    D(    5) --> V( 1261) amplitude =  0.7629
    D(    5) --> V( 1262) amplitude =  0.4517
    D(    5) --> V( 1266) amplitude = -0.3277
    D(    5) --> V( 1270) amplitude = -0.2471

 Excited state  67: excitation energy (eV) =    1054.4990
 Total energy for state  67:                  -496.56989196 au
    Multiplicity: Singlet
    Trans. Mom.:  0.0011 X   0.0018 Y   0.0085 Z
    Strength   :     0.0019636901
    D(    5) --> V( 1260) amplitude =  0.2487
    D(    5) --> V( 1262) amplitude =  0.3779
    D(    5) --> V( 1263) amplitude = -0.5097
    D(    5) --> V( 1270) amplitude =  0.5250
    D(    5) --> V( 1272) amplitude = -0.3227
    D(    5) --> V( 1273) amplitude =  0.2729

 Excited state  68: excitation energy (eV) =    1054.6455
 Total energy for state  68:                  -496.56450793 au
    Multiplicity: Singlet
    Trans. Mom.: -0.0015 X  -0.0018 Y   0.0026 Z
    Strength   :     0.0003178504
    D(    5) --> V( 1262) amplitude =  0.4912
    D(    5) --> V( 1263) amplitude =  0.7010
    D(    5) --> V( 1267) amplitude =  0.3327
    D(    5) --> V( 1270) amplitude =  0.2832

 Excited state  69: excitation energy (eV) =    1055.5024
 Total energy for state  69:                  -496.53301996 au
    Multiplicity: Singlet
    Trans. Mom.: -0.0023 X  -0.0015 Y  -0.0030 Z
    Strength   :     0.0004333833
    D(    5) --> V( 1263) amplitude = -0.4352
    D(    5) --> V( 1264) amplitude = -0.3610
    D(    5) --> V( 1267) amplitude =  0.3824
    D(    5) --> V( 1272) amplitude =  0.6344
    D(    5) --> V( 1273) amplitude = -0.2505

 Excited state  70: excitation energy (eV) =    1056.2871
 Total energy for state  70:                  -496.50418037 au
    Multiplicity: Singlet
    Trans. Mom.:  0.0036 X   0.0017 Y  -0.0002 Z
    Strength   :     0.0004193178
    D(    5) --> V( 1264) amplitude =  0.5828
    D(    5) --> V( 1267) amplitude = -0.4833
    D(    5) --> V( 1270) amplitude =  0.2890
    D(    5) --> V( 1272) amplitude =  0.5124

 Excited state  71: excitation energy (eV) =    1056.9528
 Total energy for state  71:                  -496.47971843 au
    Multiplicity: Singlet
    Trans. Mom.:  0.0000 X   0.0000 Y   0.0000 Z
    Strength   :     0.0000000000
    D(    5) --> V( 1265) amplitude =  1.0000

 Excited state  72: excitation energy (eV) =    1059.5626
 Total energy for state  72:                  -496.38380788 au
    Multiplicity: Singlet
    Trans. Mom.:  0.0002 X  -0.0002 Y   0.0001 Z
    Strength   :     0.0000021471
    D(    5) --> V( 1268) amplitude =  0.9968

 Excited state  73: excitation energy (eV) =    1060.2804
 Total energy for state  73:                  -496.35742969 au
    Multiplicity: Singlet
    Trans. Mom.: -0.0000 X   0.0000 Y   0.0000 Z
    Strength   :     0.0000000000
    D(    5) --> V( 1269) amplitude =  1.0000

 Excited state  74: excitation energy (eV) =    1060.3095
 Total energy for state  74:                  -496.35636116 au
    Multiplicity: Singlet
    Trans. Mom.: -0.0000 X   0.0002 Y  -0.0002 Z
    Strength   :     0.0000015238
    D(    5) --> V( 1270) amplitude =  0.2800
    D(    5) --> V( 1271) amplitude =  0.9595

 Excited state  75: excitation energy (eV) =    1061.3166
 Total energy for state  75:                  -496.31935021 au
    Multiplicity: Singlet
    Trans. Mom.: -0.0000 X  -0.0003 Y   0.0010 Z
    Strength   :     0.0000301793
    D(    5) --> V( 1272) amplitude =  0.3996
    D(    5) --> V( 1273) amplitude =  0.8922

 Excited state  76: excitation energy (eV) =    1066.3595
 Total energy for state  76:                  -496.13402666 au
    Multiplicity: Singlet
    Trans. Mom.:  0.0025 X  -0.0013 Y  -0.0004 Z
    Strength   :     0.0002094941
    D(    5) --> V( 1274) amplitude =  0.9892

 Excited state  77: excitation energy (eV) =    1075.1340
 Total energy for state  77:                  -495.81157090 au
    Multiplicity: Singlet
    Trans. Mom.: -0.0001 X   0.0009 Y   0.0002 Z
    Strength   :     0.0000220123
    D(    5) --> V( 1275) amplitude =  0.9964

 Excited state  78: excitation energy (eV) =    1080.0913
 Total energy for state  78:                  -495.62939401 au
    Multiplicity: Singlet
    Trans. Mom.:  0.0031 X  -0.0031 Y  -0.0015 Z
    Strength   :     0.0005601545
    D(    5) --> V( 1276) amplitude =  0.9836

 Excited state  79: excitation energy (eV) =    1080.6086
 Total energy for state  79:                  -495.61038322 au
    Multiplicity: Singlet
    Trans. Mom.: -0.0019 X   0.0009 Y  -0.0001 Z
    Strength   :     0.0001204034
    D(    5) --> V( 1277) amplitude =  0.9899

 Excited state  80: excitation energy (eV) =    1081.1317
 Total energy for state  80:                  -495.59115867 au
    Multiplicity: Singlet
    Trans. Mom.: -0.0012 X  -0.0033 Y  -0.0000 Z
    Strength   :     0.0003243525
    D(    5) --> V( 1278) amplitude =  0.9971

 Excited state  81: excitation energy (eV) =    1081.5450
 Total energy for state  81:                  -495.57597066 au
    Multiplicity: Singlet
    Trans. Mom.: -0.0004 X   0.0003 Y   0.0006 Z
    Strength   :     0.0000151577
    D(    5) --> V( 1280) amplitude =  0.9972

 Excited state  82: excitation energy (eV) =    1082.3829
 Total energy for state  82:                  -495.54517948 au
    Multiplicity: Singlet
    Trans. Mom.: -0.0000 X  -0.0000 Y   0.0000 Z
    Strength   :     0.0000000000
    D(    5) --> V( 1279) amplitude =  1.0000

 Excited state  83: excitation energy (eV) =    1082.8615
 Total energy for state  83:                  -495.52759007 au
    Multiplicity: Singlet
    Trans. Mom.:  0.0003 X  -0.0013 Y  -0.0010 Z
    Strength   :     0.0000731756
    D(    5) --> V( 1281) amplitude =  0.9968

 Excited state  84: excitation energy (eV) =    1083.5632
 Total energy for state  84:                  -495.50180420 au
    Multiplicity: Singlet
    Trans. Mom.:  0.0063 X  -0.0017 Y  -0.0019 Z
    Strength   :     0.0012267827
    D(    5) --> V( 1282) amplitude =  0.6687
    D(    5) --> V( 1283) amplitude =  0.5179
    D(    5) --> V( 1286) amplitude =  0.4649

 Excited state  85: excitation energy (eV) =    1084.1290
 Total energy for state  85:                  -495.48100895 au
    Multiplicity: Singlet
    Trans. Mom.: -0.0046 X   0.0022 Y   0.0003 Z
    Strength   :     0.0006868994
    D(    5) --> V( 1282) amplitude =  0.7174
    D(    5) --> V( 1283) amplitude = -0.6361
    D(    5) --> V( 1286) amplitude = -0.2555

 Excited state  86: excitation energy (eV) =    1085.4501
 Total energy for state  86:                  -495.43245912 au
    Multiplicity: Singlet
    Trans. Mom.:  0.0084 X  -0.0045 Y  -0.0018 Z
    Strength   :     0.0024889963
    D(    5) --> V( 1283) amplitude = -0.5653
    D(    5) --> V( 1286) amplitude =  0.7360
    D(    5) --> V( 1287) amplitude = -0.2315

 Excited state  87: excitation energy (eV) =    1085.7474
 Total energy for state  87:                  -495.42153590 au
    Multiplicity: Singlet
    Trans. Mom.:  0.0002 X   0.0011 Y   0.0002 Z
    Strength   :     0.0000319800
    D(    5) --> V( 1284) amplitude =  0.9968

 Excited state  88: excitation energy (eV) =    1088.2295
 Total energy for state  88:                  -495.33031796 au
    Multiplicity: Singlet
    Trans. Mom.:  0.0006 X   0.0224 Y   0.0010 Z
    Strength   :     0.0133574818
    D(    5) --> V( 1286) amplitude = -0.2579
    D(    5) --> V( 1288) amplitude =  0.9604

 Excited state  89: excitation energy (eV) =    1091.7648
 Total energy for state  89:                  -495.20039936 au
    Multiplicity: Singlet
    Trans. Mom.:  0.0000 X  -0.0000 Y  -0.0000 Z
    Strength   :     0.0000000000
    D(    5) --> V( 1285) amplitude =  1.0000

 Excited state  90: excitation energy (eV) =    1092.5034
 Total energy for state  90:                  -495.17325807 au
    Multiplicity: Singlet
    Trans. Mom.: -0.0002 X   0.0002 Y   0.0000 Z
    Strength   :     0.0000020056
    D(    5) --> V( 1286) amplitude =  0.2979
    D(    5) --> V( 1287) amplitude =  0.9545

 Excited state  91: excitation energy (eV) =    1113.3583
 Total energy for state  91:                  -494.40685440 au
    Multiplicity: Singlet
    Trans. Mom.:  0.0000 X   0.0000 Y  -0.0000 Z
    Strength   :     0.0000000000
    D(    5) --> V( 1289) amplitude =  1.0000

 Excited state  92: excitation energy (eV) =    1113.7557
 Total energy for state  92:                  -494.39224714 au
    Multiplicity: Singlet
    Trans. Mom.:  0.0011 X   0.0000 Y  -0.0001 Z
    Strength   :     0.0000320365
    D(    5) --> V( 1290) amplitude =  0.9998

 Excited state  93: excitation energy (eV) =    1115.3012
 Total energy for state  93:                  -494.33545356 au
    Multiplicity: Singlet
    Trans. Mom.: -0.0000 X   0.0000 Y  -0.0000 Z
    Strength   :     0.0000000000
    D(    5) --> V( 1291) amplitude =  1.0000

 Excited state  94: excitation energy (eV) =    1115.4020
 Total energy for state  94:                  -494.33174876 au
    Multiplicity: Singlet
    Trans. Mom.: -0.0003 X  -0.0008 Y   0.0023 Z
    Strength   :     0.0001644453
    D(    5) --> V( 1292) amplitude =  0.9287
    D(    5) --> V( 1293) amplitude = -0.3363

 Excited state  95: excitation energy (eV) =    1115.5927
 Total energy for state  95:                  -494.32474001 au
    Multiplicity: Singlet
    Trans. Mom.:  0.0013 X   0.0010 Y  -0.0025 Z
    Strength   :     0.0002398145
    D(    5) --> V( 1292) amplitude =  0.3663
    D(    5) --> V( 1293) amplitude =  0.8945

 Excited state  96: excitation energy (eV) =    1116.0865
 Total energy for state  96:                  -494.30659357 au
    Multiplicity: Singlet
    Trans. Mom.: -0.0019 X   0.0007 Y   0.0010 Z
    Strength   :     0.0001375217
    D(    5) --> V( 1293) amplitude =  0.2455
    D(    5) --> V( 1294) amplitude =  0.9674

 Excited state  97: excitation energy (eV) =    1116.5437
 Total energy for state  97:                  -494.28979158 au
    Multiplicity: Singlet
    Trans. Mom.:  0.0011 X   0.0005 Y   0.0003 Z
    Strength   :     0.0000382651
    D(    5) --> V( 1295) amplitude =  0.9747

 Excited state  98: excitation energy (eV) =    1117.3771
 Total energy for state  98:                  -494.25916359 au
    Multiplicity: Singlet
    Trans. Mom.: -0.0005 X   0.0003 Y   0.0008 Z
    Strength   :     0.0000251211
    D(    5) --> V( 1296) amplitude =  0.9888

 ---------------------------------------------------
  SETman timing summary (seconds)
  CPU time            225425.70s
  System time              0.01s
  Wall time           112907.48s
================================================================================
                             Excited State Analysis
================================================================================

  Ground State (Reference) :
  -------------------------
    NOs
      Occupation of frontier NOs:
         0.0000   0.0000   2.0000   2.0000
      Number of electrons: 70.000000
      Number of unpaired electrons: n_u =  0.00000, n_u,nl =  0.00000
    
    Mulliken Population Analysis (State DM)
    Atom      Charge (e)
    --------------------
     1 O       -0.774751
     2 O       -0.557859
     3 H        0.291735
     4 H        0.298509
     5 H        0.355300
     6 H        0.404816
     7 O       -0.576590
     8 H        0.283094
     9 H        0.293495
    10 O       -0.656714
    11 H        0.290402
    12 H        0.362529
    13 O       -0.681561
    14 H        0.278471
    15 H        0.375025
    16 O       -0.666563
    17 H        0.335122
    18 H        0.362890
    19 O       -0.623515
    20 H        0.259935
    21 H        0.346229
    --------------------
    Sum:        0.000000
    
    Multipole moment analysis of the density matrix
      Molecular charge:                      0.000000
      Number of electrons:                   70.000000
        Center of electronic charge [Ang]: [ -0.001564,   0.001558,   0.002942]
      Total nuclear charge:                  70.000000
        Center of nuclear charge [Ang]:    [ -0.019297,   0.008396,   0.011921]
      Dipole moment [D]:                     7.067544
        Cartesian components [D]:          [ -5.962333,   2.299037,   3.019139]
      RMS size of the density [Ang]:         8.024310
        Cartesian components [Ang]:        [  1.824294,   7.695911,   1.354427]
    

  ----------------------------------------------------------------------------
                  Analysis of Unrelaxed Density Matrices
  ----------------------------------------------------------------------------

  Singlet 1 :
  -------------------------
    NOs
      Occupation of frontier NOs:
         0.0000   1.0000   1.0000   2.0000
      Number of electrons: 70.000000
      Number of unpaired electrons: n_u =  2.00000, n_u,nl =  2.00000
      NO participation ratio (PR_NO):  2.000000
    
    NDOs
      Leading detachment eigenvalues:
        -1.0000  -0.0000
      Leading attachment eigenvalues:
         1.0000   0.0000
      Number of detached / attached electrons: p_D =  1.0000, p_A =  1.0000
      Number of involved orbitals: PR_D =  1.000000, PR_A =  1.000000
    
    Mulliken Population Analysis (State/Difference DM)
    Atom      Charge (e)              h+              e-           Del q
    --------------------------------------------------------------------
     1 O       -0.267719        0.991057       -0.484025        0.507032
     2 O       -0.568270        0.000003       -0.010414       -0.010411
     3 H        0.289855        0.000000       -0.001880       -0.001880
     4 H        0.296501        0.000000       -0.002009       -0.002009
     5 H        0.336742        0.004240       -0.022798       -0.018558
     6 H        0.367511        0.004668       -0.041973       -0.037305
     7 O       -0.576590        0.000000       -0.000000       -0.000000
     8 H        0.283094        0.000000       -0.000000       -0.000000
     9 H        0.293495        0.000000       -0.000000       -0.000000
    10 O       -0.659494        0.000002       -0.002782       -0.002780
    11 H        0.289138       -0.000000       -0.001264       -0.001264
    12 H        0.361543        0.000006       -0.000991       -0.000986
    13 O       -0.973872        0.000000       -0.292311       -0.292311
    14 H        0.262589       -0.000000       -0.015883       -0.015883
    15 H        0.348737        0.000018       -0.026306       -0.026287
    16 O       -0.732802        0.000006       -0.066245       -0.066239
    17 H        0.316304        0.000000       -0.018818       -0.018818
    18 H        0.359238        0.000000       -0.003652       -0.003652
    19 O       -0.629486       -0.000000       -0.005971       -0.005971
    20 H        0.258874        0.000000       -0.001060       -0.001060
    21 H        0.344610       -0.000000       -0.001618       -0.001619
    --------------------------------------------------------------------
    Sum:       -0.000000        1.000000       -1.000000       -0.000000
    
    Multipole moment analysis of the density matrix
      Molecular charge:                      -0.000000
      Number of electrons:                   70.000000
        Center of electronic charge [Ang]: [  0.001193,  -0.004028,   0.013223]
      Total nuclear charge:                  70.000000
        Center of nuclear charge [Ang]:    [ -0.019297,   0.008396,   0.011921]
      Dipole moment [D]:                     8.068751
        Cartesian components [D]:          [ -6.889396,   4.177258,  -0.437593]
      RMS size of the density [Ang]:         8.025855
        Cartesian components [Ang]:        [  1.831911,   7.693957,   1.364357]
    
    Exciton analysis of the difference density matrix
      <r_h> [Ang]:                  [  0.867221,   3.824576,   0.194880]
      <r_e> [Ang]:                  [  1.060230,   3.433541,   0.914552]
      |<r_e - r_h>| [Ang]:            0.841480
      Hole size [Ang]:                0.122783
        Cartesian components [Ang]: [  0.070891,   0.070897,   0.070878]
      Electron size [Ang]:            1.852196
        Cartesian components [Ang]: [  1.257928,   0.860336,   1.052649]

  Singlet 2 :
  -------------------------
    NOs
      Occupation of frontier NOs:
         0.0000   1.0000   1.0000   2.0000
      Number of electrons: 70.000000
      Number of unpaired electrons: n_u =  2.00000, n_u,nl =  2.00000
      NO participation ratio (PR_NO):  2.000000
    
    NDOs
      Leading detachment eigenvalues:
        -1.0000  -0.0000
      Leading attachment eigenvalues:
         1.0000   0.0000
      Number of detached / attached electrons: p_D =  1.0000, p_A =  1.0000
      Number of involved orbitals: PR_D =  1.000000, PR_A =  1.000000
    
    Mulliken Population Analysis (State/Difference DM)
    Atom      Charge (e)              h+              e-           Del q
    --------------------------------------------------------------------
     1 O       -0.297215        0.991057       -0.513522        0.477536
     2 O       -0.560647        0.000003       -0.002791       -0.002787
     3 H        0.291258        0.000000       -0.000477       -0.000477
     4 H        0.298036        0.000000       -0.000474       -0.000473
     5 H        0.279133        0.004240       -0.080407       -0.076167
     6 H        0.329614        0.004668       -0.079870       -0.075202
     7 O       -0.576590        0.000000       -0.000000        0.000000
     8 H        0.283094        0.000000       -0.000000        0.000000
     9 H        0.293495        0.000000       -0.000000        0.000000
    10 O       -0.684206        0.000002       -0.027494       -0.027492
    11 H        0.277898       -0.000000       -0.012505       -0.012505
    12 H        0.352901        0.000006       -0.009634       -0.009628
    13 O       -0.801878        0.000000       -0.120317       -0.120316
    14 H        0.259338       -0.000000       -0.019133       -0.019133
    15 H        0.367165        0.000018       -0.007878       -0.007860
    16 O       -0.713068        0.000006       -0.046511       -0.046505
    17 H        0.311819        0.000000       -0.023303       -0.023303
    18 H        0.348256        0.000000       -0.014634       -0.014634
    19 O       -0.651442       -0.000000       -0.027927       -0.027927
    20 H        0.256584        0.000000       -0.003350       -0.003350
    21 H        0.336454       -0.000000       -0.009775       -0.009775
    --------------------------------------------------------------------
    Sum:       -0.000000        1.000000       -1.000000       -0.000000
    
    Multipole moment analysis of the density matrix
      Molecular charge:                      -0.000000
      Number of electrons:                   70.000000
        Center of electronic charge [Ang]: [ -0.004266,  -0.001234,   0.006425]
      Total nuclear charge:                  70.000000
        Center of nuclear charge [Ang]:    [ -0.019297,   0.008396,   0.011921]
      Dipole moment [D]:                     6.279983
        Cartesian components [D]:          [ -5.053794,   3.237669,   1.847932]
      RMS size of the density [Ang]:         8.025951
        Cartesian components [Ang]:        [  1.829997,   7.695154,   1.360733]
    
    Exciton analysis of the difference density matrix
      <r_h> [Ang]:                  [  0.867221,   3.824576,   0.194880]
      <r_e> [Ang]:                  [  0.678068,   3.629158,   0.438719]
      |<r_e - r_h>| [Ang]:            0.365273
      Hole size [Ang]:                0.122783
        Cartesian components [Ang]: [  0.070891,   0.070897,   0.070878]
      Electron size [Ang]:            1.858892
        Cartesian components [Ang]: [  1.325640,   0.804286,   1.025321]

  Singlet 3 :
  -------------------------
    NOs
      Occupation of frontier NOs:
         0.0000   1.0000   1.0000   2.0000
      Number of electrons: 70.000000
      Number of unpaired electrons: n_u =  2.00000, n_u,nl =  2.00000
      NO participation ratio (PR_NO):  2.000000
    
    NDOs
      Leading detachment eigenvalues:
        -1.0000  -0.0000
      Leading attachment eigenvalues:
         1.0000   0.0000
      Number of detached / attached electrons: p_D =  1.0000, p_A =  1.0000
      Number of involved orbitals: PR_D =  1.000000, PR_A =  1.000000
    
    Mulliken Population Analysis (State/Difference DM)
    Atom      Charge (e)              h+              e-           Del q
    --------------------------------------------------------------------
     1 O        0.153772        0.991057       -0.062535        0.928522
     2 O       -0.575007        0.000003       -0.017151       -0.017148
     3 H        0.290904        0.000000       -0.000832       -0.000831
     4 H        0.297899        0.000000       -0.000611       -0.000611
     5 H        0.352938        0.004240       -0.006603       -0.002363
     6 H        0.399000        0.004668       -0.010484       -0.005816
     7 O       -0.576590        0.000000       -0.000000       -0.000000
     8 H        0.283094        0.000000       -0.000000       -0.000000
     9 H        0.293495        0.000000       -0.000000       -0.000000
    10 O       -0.866937        0.000002       -0.210225       -0.210223
    11 H        0.158482       -0.000000       -0.131920       -0.131921
    12 H        0.222315        0.000006       -0.140220       -0.140214
    13 O       -0.719073        0.000000       -0.037512       -0.037512
    14 H        0.263560       -0.000000       -0.014911       -0.014912
    15 H        0.366690        0.000018       -0.008353       -0.008335
    16 O       -0.874261        0.000006       -0.207704       -0.207698
    17 H        0.330829        0.000000       -0.004294       -0.004294
    18 H        0.359565        0.000000       -0.003325       -0.003325
    19 O       -0.724557       -0.000000       -0.101042       -0.101042
    20 H        0.251447        0.000000       -0.008488       -0.008488
    21 H        0.312438       -0.000000       -0.033791       -0.033791
    --------------------------------------------------------------------
    Sum:        0.000000        1.000000       -1.000000        0.000000
    
    Multipole moment analysis of the density matrix
      Molecular charge:                      0.000000
      Number of electrons:                   70.000000
        Center of electronic charge [Ang]: [ -0.008392,  -0.007567,  -0.009210]
      Total nuclear charge:                  70.000000
        Center of nuclear charge [Ang]:    [ -0.019297,   0.008396,   0.011921]
      Dipole moment [D]:                     9.629389
        Cartesian components [D]:          [ -3.666560,   5.366923,   7.104759]
      RMS size of the density [Ang]:         8.026809
        Cartesian components [Ang]:        [  1.838264,   7.693054,   1.366518]
    
    Exciton analysis of the difference density matrix
      <r_h> [Ang]:                  [  0.867221,   3.824576,   0.194880]
      <r_e> [Ang]:                  [  0.389254,   3.185859,  -0.655723]
      |<r_e - r_h>| [Ang]:            1.166163
      Hole size [Ang]:                0.122783
        Cartesian components [Ang]: [  0.070891,   0.070897,   0.070878]
      Electron size [Ang]:            2.742634
        Cartesian components [Ang]: [  2.047419,   1.186977,   1.386075]

  Singlet 4 :
  -------------------------
    NOs
      Occupation of frontier NOs:
         0.0000   1.0000   1.0000   2.0000
      Number of electrons: 70.000000
      Number of unpaired electrons: n_u =  2.00000, n_u,nl =  2.00000
      NO participation ratio (PR_NO):  2.000000
    
    NDOs
      Leading detachment eigenvalues:
        -1.0000  -0.0000
      Leading attachment eigenvalues:
         1.0000   0.0000
      Number of detached / attached electrons: p_D =  1.0000, p_A =  1.0000
      Number of involved orbitals: PR_D =  1.000000, PR_A =  1.000000
    
    Mulliken Population Analysis (State/Difference DM)
    Atom      Charge (e)              h+              e-           Del q
    --------------------------------------------------------------------
     1 O        0.136685        0.991057       -0.079621        0.911436
     2 O       -0.592323        0.000003       -0.034467       -0.034464
     3 H        0.291231        0.000000       -0.000505       -0.000504
     4 H        0.296776        0.000000       -0.001733       -0.001733
     5 H        0.338411        0.004240       -0.021129       -0.016889
     6 H        0.387226        0.004668       -0.022258       -0.017590
     7 O       -0.576590        0.000000       -0.000000        0.000000
     8 H        0.283094        0.000000       -0.000000        0.000000
     9 H        0.293495        0.000000       -0.000000        0.000000
    10 O       -0.838782        0.000002       -0.182070       -0.182068
    11 H        0.176655       -0.000000       -0.113748       -0.113748
    12 H        0.249082        0.000006       -0.113452       -0.113447
    13 O       -0.770498        0.000000       -0.088937       -0.088937
    14 H        0.262413       -0.000000       -0.016058       -0.016058
    15 H        0.365686        0.000018       -0.009356       -0.009338
    16 O       -0.798690        0.000006       -0.132133       -0.132127
    17 H        0.333031        0.000000       -0.002091       -0.002091
    18 H        0.360344        0.000000       -0.002546       -0.002546
    19 O       -0.750878       -0.000000       -0.127363       -0.127363
    20 H        0.246304        0.000000       -0.013631       -0.013631
    21 H        0.307328       -0.000000       -0.038901       -0.038901
    --------------------------------------------------------------------
    Sum:        0.000000        1.000000       -1.000000        0.000000
    
    Multipole moment analysis of the density matrix
      Molecular charge:                      0.000000
      Number of electrons:                   70.000000
        Center of electronic charge [Ang]: [ -0.008105,  -0.008715,  -0.007260]
      Total nuclear charge:                  70.000000
        Center of nuclear charge [Ang]:    [ -0.019297,   0.008396,   0.011921]
      Dipole moment [D]:                     9.425915
        Cartesian components [D]:          [ -3.762919,   5.752996,   6.449135]
      RMS size of the density [Ang]:         8.026363
        Cartesian components [Ang]:        [  1.838793,   7.692427,   1.366719]
    
    Exciton analysis of the difference density matrix
      <r_h> [Ang]:                  [  0.867221,   3.824576,   0.194880]
      <r_e> [Ang]:                  [  0.409315,   3.105481,  -0.519225]
      |<r_e - r_h>| [Ang]:            1.112080
      Hole size [Ang]:                0.122783
        Cartesian components [Ang]: [  0.070891,   0.070897,   0.070878]
      Electron size [Ang]:            2.769544
        Cartesian components [Ang]: [  2.076490,   1.113857,   1.455296]

  Singlet 5 :
  -------------------------
    NOs
      Occupation of frontier NOs:
         0.0000   1.0000   1.0000   2.0000
      Number of electrons: 70.000000
      Number of unpaired electrons: n_u =  2.00000, n_u,nl =  2.00000
      NO participation ratio (PR_NO):  2.000000
    
    NDOs
      Leading detachment eigenvalues:
        -1.0000  -0.0000
      Leading attachment eigenvalues:
         1.0000   0.0000
      Number of detached / attached electrons: p_D =  1.0000, p_A =  1.0000
      Number of involved orbitals: PR_D =  1.000000, PR_A =  1.000000
    
    Mulliken Population Analysis (State/Difference DM)
    Atom      Charge (e)              h+              e-           Del q
    --------------------------------------------------------------------
     1 O       -0.101978        0.991057       -0.318285        0.672773
     2 O       -0.729082        0.000003       -0.171226       -0.171223
     3 H        0.287667        0.000000       -0.004068       -0.004068
     4 H        0.293789        0.000000       -0.004720       -0.004720
     5 H        0.342410        0.004240       -0.017130       -0.012890
     6 H        0.399264        0.004668       -0.010220       -0.005553
     7 O       -0.576590        0.000000       -0.000000        0.000000
     8 H        0.283094        0.000000       -0.000000        0.000000
     9 H        0.293495        0.000000       -0.000000        0.000000
    10 O       -0.659551        0.000002       -0.002839       -0.002837
    11 H        0.288693       -0.000000       -0.001709       -0.001709
    12 H        0.361362        0.000006       -0.001173       -0.001168
    13 O       -0.794698        0.000000       -0.113137       -0.113136
    14 H        0.229594       -0.000000       -0.048878       -0.048878
    15 H        0.350574        0.000018       -0.024468       -0.024450
    16 O       -0.734539        0.000006       -0.067982       -0.067976
    17 H        0.326539        0.000000       -0.008584       -0.008583
    18 H        0.361334        0.000000       -0.001556       -0.001556
    19 O       -0.767297       -0.000000       -0.143781       -0.143781
    20 H        0.244345        0.000000       -0.015589       -0.015589
    21 H        0.301573       -0.000000       -0.044656       -0.044656
    --------------------------------------------------------------------
    Sum:       -0.000000        1.000000       -1.000000       -0.000000
    
    Multipole moment analysis of the density matrix
      Molecular charge:                      -0.000000
      Number of electrons:                   70.000000
        Center of electronic charge [Ang]: [ -0.015303,  -0.006317,   0.004801]
      Total nuclear charge:                  70.000000
        Center of nuclear charge [Ang]:    [ -0.019297,   0.008396,   0.011921]
      Dipole moment [D]:                     5.657382
        Cartesian components [D]:          [ -1.342998,   4.946751,   2.394155]
      RMS size of the density [Ang]:         8.025652
        Cartesian components [Ang]:        [  1.834877,   7.693391,   1.362369]
    
    Exciton analysis of the difference density matrix
      <r_h> [Ang]:                  [  0.867221,   3.824576,   0.194880]
      <r_e> [Ang]:                  [ -0.094499,   3.273337,   0.324998]
      |<r_e - r_h>| [Ang]:            1.116109
      Hole size [Ang]:                0.122783
        Cartesian components [Ang]: [  0.070891,   0.070897,   0.070878]
      Electron size [Ang]:            2.475866
        Cartesian components [Ang]: [  1.864230,   1.098132,   1.203604]

  Singlet 6 :
  -------------------------
    NOs
      Occupation of frontier NOs:
         0.0000   1.0000   1.0000   2.0000
      Number of electrons: 70.000000
      Number of unpaired electrons: n_u =  2.00000, n_u,nl =  2.00000
      NO participation ratio (PR_NO):  2.000000
    
    NDOs
      Leading detachment eigenvalues:
        -1.0000  -0.0000
      Leading attachment eigenvalues:
         1.0000   0.0000
      Number of detached / attached electrons: p_D =  1.0000, p_A =  1.0000
      Number of involved orbitals: PR_D =  1.000000, PR_A =  1.000000
    
    Mulliken Population Analysis (State/Difference DM)
    Atom      Charge (e)              h+              e-           Del q
    --------------------------------------------------------------------
     1 O        0.210706        0.991057       -0.005601        0.985456
     2 O       -0.559753        0.000003       -0.001897       -0.001894
     3 H        0.291527        0.000000       -0.000208       -0.000208
     4 H        0.298273        0.000000       -0.000236       -0.000236
     5 H        0.358947        0.004240       -0.000593        0.003647
     6 H        0.408930        0.004668       -0.000554        0.004114
     7 O       -0.576590        0.000000       -0.000000        0.000000
     8 H        0.283094        0.000000       -0.000000        0.000000
     9 H        0.293495        0.000000       -0.000000        0.000000
    10 O       -0.657601        0.000002       -0.000889       -0.000887
    11 H        0.289854       -0.000000       -0.000548       -0.000548
    12 H        0.362018        0.000006       -0.000516       -0.000511
    13 O       -0.685969        0.000000       -0.004408       -0.004408
    14 H        0.276385       -0.000000       -0.002086       -0.002086
    15 H        0.373529        0.000018       -0.001513       -0.001495
    16 O       -0.693390        0.000006       -0.026832       -0.026827
    17 H        0.326254        0.000000       -0.008869       -0.008868
    18 H        0.360186        0.000000       -0.002704       -0.002704
    19 O       -1.545437       -0.000000       -0.921922       -0.921922
    20 H        0.246800        0.000000       -0.013135       -0.013135
    21 H        0.338740       -0.000000       -0.007489       -0.007489
    --------------------------------------------------------------------
    Sum:        0.000000        1.000000       -1.000000        0.000000
    
    Multipole moment analysis of the density matrix
      Molecular charge:                      0.000000
      Number of electrons:                   70.000000
        Center of electronic charge [Ang]: [ -0.054940,   0.002085,  -0.017052]
      Total nuclear charge:                  70.000000
        Center of nuclear charge [Ang]:    [ -0.019297,   0.008396,   0.011921]
      Dipole moment [D]:                     15.588889
        Cartesian components [D]:          [ 11.983907,   2.121928,   9.741501]
      RMS size of the density [Ang]:         8.033271
        Cartesian components [Ang]:        [  1.854540,   7.696352,   1.363927]
    
    Exciton analysis of the difference density matrix
      <r_h> [Ang]:                  [  0.867221,   3.824576,   0.194880]
      <r_e> [Ang]:                  [ -2.869085,   3.861449,  -1.204677]
      |<r_e - r_h>| [Ang]:            3.990000
      Hole size [Ang]:                0.122783
        Cartesian components [Ang]: [  0.070891,   0.070897,   0.070878]
      Electron size [Ang]:            1.068517
        Cartesian components [Ang]: [  0.725022,   0.443781,   0.647402]

  Singlet 7 :
  -------------------------
    NOs
      Occupation of frontier NOs:
         0.0000   1.0000   1.0000   2.0000
      Number of electrons: 70.000000
      Number of unpaired electrons: n_u =  2.00000, n_u,nl =  2.00000
      NO participation ratio (PR_NO):  2.000000
    
    NDOs
      Leading detachment eigenvalues:
        -1.0000  -0.0000
      Leading attachment eigenvalues:
         1.0000   0.0000
      Number of detached / attached electrons: p_D =  1.0000, p_A =  1.0000
      Number of involved orbitals: PR_D =  1.000000, PR_A =  1.000000
    
    Mulliken Population Analysis (State/Difference DM)
    Atom      Charge (e)              h+              e-           Del q
    --------------------------------------------------------------------
     1 O        0.203903        0.991057       -0.012403        0.978654
     2 O       -0.574025        0.000003       -0.016169       -0.016166
     3 H        0.291041        0.000000       -0.000694       -0.000693
     4 H        0.296665        0.000000       -0.001844       -0.001844
     5 H        0.357305        0.004240       -0.002235        0.002005
     6 H        0.407516        0.004668       -0.001968        0.002699
     7 O       -0.576590        0.000000       -0.000000       -0.000000
     8 H        0.283094        0.000000       -0.000000       -0.000000
     9 H        0.293495        0.000000       -0.000000       -0.000000
    10 O       -0.657353        0.000002       -0.000641       -0.000639
    11 H        0.290112       -0.000000       -0.000290       -0.000290
    12 H        0.362289        0.000006       -0.000246       -0.000240
    13 O       -0.684833        0.000000       -0.003272       -0.003272
    14 H        0.277358       -0.000000       -0.001113       -0.001113
    15 H        0.374586        0.000018       -0.000456       -0.000438
    16 O       -0.727632        0.000006       -0.061075       -0.061069
    17 H        0.327251        0.000000       -0.007872       -0.007871
    18 H        0.357833        0.000000       -0.005057       -0.005057
    19 O       -1.450988       -0.000000       -0.827472       -0.827472
    20 H        0.241864        0.000000       -0.018071       -0.018071
    21 H        0.307108       -0.000000       -0.039121       -0.039121
    --------------------------------------------------------------------
    Sum:        0.000000        1.000000       -1.000000        0.000000
    
    Multipole moment analysis of the density matrix
      Molecular charge:                      0.000000
      Number of electrons:                   70.000000
        Center of electronic charge [Ang]: [ -0.052912,   0.001756,  -0.015525]
      Total nuclear charge:                  70.000000
        Center of nuclear charge [Ang]:    [ -0.019297,   0.008396,   0.011921]
      Dipole moment [D]:                     14.760670
        Cartesian components [D]:          [ 11.302028,   2.232359,   9.228115]
      RMS size of the density [Ang]:         8.032614
        Cartesian components [Ang]:        [  1.852148,   7.696308,   1.363553]
    
    Exciton analysis of the difference density matrix
      <r_h> [Ang]:                  [  0.867221,   3.824576,   0.194880]
      <r_e> [Ang]:                  [ -2.727122,   3.838458,  -1.097793]
      |<r_e - r_h>| [Ang]:            3.819750
      Hole size [Ang]:                0.122783
        Cartesian components [Ang]: [  0.070891,   0.070897,   0.070878]
      Electron size [Ang]:            1.265330
        Cartesian components [Ang]: [  0.827123,   0.571371,   0.768416]

  Singlet 8 :
  -------------------------
    NOs
      Occupation of frontier NOs:
         0.0000   1.0000   1.0000   2.0000
      Number of electrons: 70.000000
      Number of unpaired electrons: n_u =  2.00000, n_u,nl =  2.00000
      NO participation ratio (PR_NO):  2.000000
    
    NDOs
      Leading detachment eigenvalues:
        -1.0000  -0.0000
      Leading attachment eigenvalues:
         1.0000   0.0000
      Number of detached / attached electrons: p_D =  1.0000, p_A =  1.0000
      Number of involved orbitals: PR_D =  1.000000, PR_A =  1.000000
    
    Mulliken Population Analysis (State/Difference DM)
    Atom      Charge (e)              h+              e-           Del q
    --------------------------------------------------------------------
     1 O        0.123758        0.991057       -0.092548        0.898509
     2 O       -1.077847        0.000003       -0.519991       -0.519988
     3 H        0.258799        0.000000       -0.032936       -0.032936
     4 H        0.233128        0.000000       -0.065382       -0.065382
     5 H        0.353799        0.004240       -0.005742       -0.001501
     6 H        0.391313        0.004668       -0.018170       -0.013503
     7 O       -0.576590        0.000000       -0.000000        0.000000
     8 H        0.283094        0.000000       -0.000000        0.000000
     9 H        0.293495        0.000000       -0.000000        0.000000
    10 O       -0.663487        0.000002       -0.006775       -0.006773
    11 H        0.287568       -0.000000       -0.002834       -0.002834
    12 H        0.360825        0.000006       -0.001710       -0.001704
    13 O       -0.781774        0.000000       -0.100213       -0.100213
    14 H        0.233311       -0.000000       -0.045160       -0.045161
    15 H        0.337531        0.000018       -0.037511       -0.037493
    16 O       -0.689628        0.000006       -0.023071       -0.023065
    17 H        0.332075        0.000000       -0.003048       -0.003048
    18 H        0.359817        0.000000       -0.003073       -0.003073
    19 O       -0.659477       -0.000000       -0.035962       -0.035962
    20 H        0.257328        0.000000       -0.002607       -0.002607
    21 H        0.342962       -0.000000       -0.003267       -0.003267
    --------------------------------------------------------------------
    Sum:        0.000000        1.000000       -1.000000        0.000000
    
    Multipole moment analysis of the density matrix
      Molecular charge:                      0.000000
      Number of electrons:                   70.000000
        Center of electronic charge [Ang]: [ -0.012787,  -0.023013,   0.006297]
      Total nuclear charge:                  70.000000
        Center of nuclear charge [Ang]:    [ -0.019297,   0.008396,   0.011921]
      Dipole moment [D]:                     10.949415
        Cartesian components [D]:          [ -2.188766,  10.560456,   1.890968]
      RMS size of the density [Ang]:         8.018323
        Cartesian components [Ang]:        [  1.828676,   7.687546,   1.360547]
    
    Exciton analysis of the difference density matrix
      <r_h> [Ang]:                  [  0.867221,   3.824576,   0.194880]
      <r_e> [Ang]:                  [  0.081585,   2.104595,   0.429759]
      |<r_e - r_h>| [Ang]:            1.905446
      Hole size [Ang]:                0.122783
        Cartesian components [Ang]: [  0.070891,   0.070897,   0.070878]
      Electron size [Ang]:            2.034227
        Cartesian components [Ang]: [  1.371975,   1.110073,   1.011683]

  Singlet 9 :
  -------------------------
    NOs
      Occupation of frontier NOs:
         0.0000   1.0000   1.0000   2.0000
      Number of electrons: 70.000000
      Number of unpaired electrons: n_u =  2.00000, n_u,nl =  2.00000
      NO participation ratio (PR_NO):  2.000000
    
    NDOs
      Leading detachment eigenvalues:
        -1.0000  -0.0000
      Leading attachment eigenvalues:
         1.0000   0.0000
      Number of detached / attached electrons: p_D =  1.0000, p_A =  1.0000
      Number of involved orbitals: PR_D =  1.000000, PR_A =  1.000000
    
    Mulliken Population Analysis (State/Difference DM)
    Atom      Charge (e)              h+              e-           Del q
    --------------------------------------------------------------------
     1 O        0.120088        0.991057       -0.096218        0.894839
     2 O       -1.071925        0.000003       -0.514069       -0.514065
     3 H        0.155281        0.000000       -0.136454       -0.136453
     4 H        0.258311        0.000000       -0.040199       -0.040198
     5 H        0.349438        0.004240       -0.010102       -0.005862
     6 H        0.362908        0.004668       -0.046576       -0.041909
     7 O       -0.576590        0.000000       -0.000000        0.000000
     8 H        0.283094        0.000000       -0.000000        0.000000
     9 H        0.293495        0.000000       -0.000000        0.000000
    10 O       -0.668239        0.000002       -0.011526       -0.011524
    11 H        0.288334       -0.000000       -0.002069       -0.002069
    12 H        0.361061        0.000006       -0.001474       -0.001469
    13 O       -0.688788        0.000000       -0.007227       -0.007226
    14 H        0.275399       -0.000000       -0.003072       -0.003072
    15 H        0.371906        0.000018       -0.003137       -0.003118
    16 O       -0.709007        0.000006       -0.042450       -0.042444
    17 H        0.327307        0.000000       -0.007815       -0.007815
    18 H        0.358860        0.000000       -0.004030       -0.004030
    19 O       -0.679894       -0.000000       -0.056379       -0.056379
    20 H        0.250413        0.000000       -0.009522       -0.009522
    21 H        0.338546       -0.000000       -0.007682       -0.007683
[...]
1097  H 11  s        0.00503  -0.00000  -0.00157   0.00201
1098  H 11  s        0.00797  -0.00000  -0.01658   0.00159
1099  H 11  s       -0.03562   0.00000   0.03584   0.02414
1100  H 11  s       -0.19567  -0.00000   0.22232   0.07900
1101  H 11  s        0.96399  -0.00000   0.33430   0.27221
1102  H 11  px      -0.00192   0.00000  -0.00031  -0.00027
1103  H 11  py       0.00080  -0.00000  -0.00022  -0.00001
1104  H 11  pz      -0.00013   0.00000  -0.00000  -0.00007
1105  H 11  px       0.00229  -0.00000  -0.00233  -0.00121
1106  H 11  py      -0.00071   0.00000   0.00242   0.00027
1107  H 11  pz      -0.00001  -0.00000   0.00082   0.00121
1108  H 11  px      -0.05316   0.00000   0.01534   0.00468
1109  H 11  py       0.01759  -0.00000  -0.02686  -0.00875
1110  H 11  pz      -0.00790   0.00000   0.00655  -0.00357
1111  H 11  px      -0.08714  -0.00000   0.06356   0.02181
1112  H 11  py       0.04270  -0.00000  -0.03965  -0.00032
1113  H 11  pz      -0.01451   0.00000   0.01605  -0.02115
1114  H 11  d 1      0.00025  -0.00000   0.00076   0.00031
1115  H 11  d 2     -0.00007  -0.00000   0.00006  -0.00019
1116  H 11  d 3      0.00015   0.00000   0.00005   0.00003
1117  H 11  d 4      0.00005   0.00000  -0.00013  -0.00020
1118  H 11  d 5     -0.00008  -0.00000  -0.00025   0.00005
1119  H 11  d 1     -0.00020  -0.00000  -0.00539  -0.00256
1120  H 11  d 2      0.00059  -0.00000  -0.00113   0.00047
1121  H 11  d 3      0.00036  -0.00000  -0.00070  -0.00036
1122  H 11  d 4     -0.00100   0.00000   0.00241   0.00158
1123  H 11  d 5     -0.00133   0.00000   0.00078  -0.00073
1124  H 11  d 1      0.00525  -0.00000  -0.02289  -0.00826
1125  H 11  d 2      0.00010  -0.00000  -0.00413   0.00171
1126  H 11  d 3      0.00612  -0.00000  -0.01792  -0.00877
1127  H 11  d 4     -0.00632   0.00000   0.00717  -0.00702
1128  H 11  d 5     -0.00903  -0.00000   0.00514   0.00787
1129  H 11  f 1      0.00020  -0.00000   0.00004   0.00008
1130  H 11  f 2      0.00003   0.00000  -0.00012  -0.00011
1131  H 11  f 3     -0.00015   0.00000  -0.00029  -0.00010
1132  H 11  f 4     -0.00002   0.00000  -0.00009  -0.00007
1133  H 11  f 5      0.00010   0.00000   0.00008   0.00008
1134  H 11  f 6      0.00005   0.00000  -0.00007   0.00003
1135  H 11  f 7     -0.00012   0.00000  -0.00013  -0.00013
1136  H 11  f 1     -0.00098  -0.00000  -0.00594  -0.00275
1137  H 11  f 2      0.00061  -0.00000  -0.00160   0.00079
1138  H 11  f 3      0.00093   0.00000   0.00403   0.00166
1139  H 11  f 4      0.00125  -0.00000  -0.00128   0.00062
1140  H 11  f 5     -0.00033  -0.00000  -0.00336  -0.00187
1141  H 11  f 6     -0.00157  -0.00000   0.00099  -0.00031
1142  H 11  f 7     -0.00105  -0.00000  -0.00152  -0.00009
1143  H 11  g 1     -0.00001   0.00000  -0.00028  -0.00010
1144  H 11  g 2      0.00009  -0.00000  -0.00013   0.00005
1145  H 11  g 3      0.00007  -0.00000   0.00030   0.00012
1146  H 11  g 4     -0.00004   0.00000   0.00008  -0.00004
1147  H 11  g 5      0.00005   0.00000   0.00019   0.00009
1148  H 11  g 6      0.00012   0.00000  -0.00012   0.00007
1149  H 11  g 7     -0.00000  -0.00000  -0.00002  -0.00004
1150  H 11  g 8     -0.00006   0.00000  -0.00006  -0.00003
1151  H 11  g 9     -0.00016  -0.00000  -0.00036  -0.00009
1152  H 12  s        0.00136  -0.00000  -0.00994  -0.00438
1153  H 12  s        0.00955   0.00000  -0.01494  -0.00548
1154  H 12  s       -0.03764  -0.00000  -0.16885  -0.05878
1155  H 12  s       -0.26774  -0.00000   0.16752  -0.00517
1156  H 12  s       -0.33653  -0.00000  -1.10957  -0.57080
1157  H 12  px       0.00023   0.00000   0.00003  -0.00006
1158  H 12  py       0.00004  -0.00000   0.00207   0.00083
1159  H 12  pz      -0.00051  -0.00000  -0.00202  -0.00100
1160  H 12  px       0.00001  -0.00000  -0.00036   0.00018
1161  H 12  py       0.00138   0.00000  -0.00313  -0.00026
1162  H 12  pz       0.00041   0.00000   0.00216   0.00084
1163  H 12  px       0.00270   0.00000   0.00561   0.00823
1164  H 12  py      -0.01503  -0.00000   0.01351   0.00580
1165  H 12  pz       0.01472   0.00000  -0.01491  -0.00830
1166  H 12  px      -0.03233  -0.00000  -0.02652   0.02087
1167  H 12  py      -0.00544  -0.00000   0.03037   0.02140
1168  H 12  pz       0.10736   0.00000  -0.09057  -0.02197
1169  H 12  d 1     -0.00002   0.00000  -0.00008  -0.00010
1170  H 12  d 2     -0.00037  -0.00000  -0.00043  -0.00028
1171  H 12  d 3      0.00014   0.00000   0.00017   0.00025
1172  H 12  d 4      0.00008   0.00000   0.00044   0.00035
1173  H 12  d 5     -0.00020   0.00000  -0.00030  -0.00015
1174  H 12  d 1      0.00054  -0.00000   0.00105   0.00066
1175  H 12  d 2      0.00352   0.00000   0.00375   0.00198
1176  H 12  d 3     -0.00115  -0.00000  -0.00158  -0.00143
1177  H 12  d 4     -0.00116  -0.00000  -0.00270  -0.00207
1178  H 12  d 5      0.00199   0.00000   0.00191   0.00119
1179  H 12  d 1     -0.00250  -0.00000   0.00006   0.00795
1180  H 12  d 2      0.00985   0.00000  -0.01822  -0.00568
1181  H 12  d 3     -0.01382  -0.00000   0.01585   0.00683
1182  H 12  d 4      0.00550  -0.00000   0.00562  -0.00352
1183  H 12  d 5     -0.00116   0.00000  -0.00413  -0.00446
1184  H 12  f 1      0.00014  -0.00000   0.00007   0.00008
1185  H 12  f 2     -0.00016  -0.00000  -0.00016   0.00005
1186  H 12  f 3     -0.00002  -0.00000  -0.00072  -0.00020
1187  H 12  f 4     -0.00016  -0.00000  -0.00006   0.00008
1188  H 12  f 5      0.00003   0.00000   0.00016   0.00003
1189  H 12  f 6     -0.00014   0.00000  -0.00025  -0.00029
1190  H 12  f 7     -0.00005   0.00000  -0.00012   0.00009
1191  H 12  f 1     -0.00028   0.00000   0.00017  -0.00052
1192  H 12  f 2      0.00050   0.00000  -0.00008  -0.00209
1193  H 12  f 3     -0.00319  -0.00000   0.00411   0.00047
1194  H 12  f 4      0.00143   0.00000  -0.00085  -0.00092
1195  H 12  f 5      0.00005  -0.00000  -0.00054   0.00080
1196  H 12  f 6     -0.00107  -0.00000   0.00063   0.00108
1197  H 12  f 7      0.00020  -0.00000  -0.00020  -0.00153
1198  H 12  g 1     -0.00000  -0.00000  -0.00005  -0.00007
1199  H 12  g 2     -0.00005  -0.00000  -0.00002   0.00001
1200  H 12  g 3      0.00003   0.00000  -0.00003   0.00012
1201  H 12  g 4      0.00018   0.00000  -0.00013  -0.00001
1202  H 12  g 5      0.00001   0.00000   0.00005   0.00006
1203  H 12  g 6     -0.00002  -0.00000   0.00005  -0.00003
1204  H 12  g 7      0.00014   0.00000  -0.00003  -0.00000
1205  H 12  g 8     -0.00001   0.00000   0.00005   0.00013
1206  H 12  g 9     -0.00001  -0.00000  -0.00001   0.00001
1207  O 7   s        0.00091  -0.00000   0.00137   0.00056
1208  O 7   s       -0.00546  -0.00000  -0.05709  -0.00546
1209  O 7   s        0.00237  -0.00000  -0.00300   0.00068
1210  O 7   s       -0.02539  -0.00000  -0.04161  -0.00523
1211  O 7   s        0.02310  -0.00000  -0.10936  -0.03815
1212  O 7   s        0.25690  -0.00000  -0.62056  -0.16867
1213  O 7   px       0.00937  -0.00000   0.01771   0.00431
1214  O 7   py      -0.01817   0.00000  -0.01696  -0.01052
1215  O 7   pz      -0.00236   0.00000   0.00013   0.00392
1216  O 7   px       0.01362   0.00000   0.03012   0.00359
1217  O 7   py      -0.03049   0.00000  -0.02516  -0.01588
1218  O 7   pz      -0.00578   0.00000   0.00327   0.00599
1219  O 7   px       0.03946  -0.00000   0.03105   0.03431
1220  O 7   py      -0.05022   0.00000  -0.03867  -0.03783
1221  O 7   pz       0.00525  -0.00000  -0.01094   0.01928
1222  O 7   px       0.09255  -0.00000  -0.03163   0.11065
1223  O 7   py      -0.02523   0.00000  -0.11487  -0.09426
1224  O 7   pz       0.07168  -0.00000  -0.17651   0.04897
1225  O 7   px       0.20068  -0.00000   0.14087   0.18482
1226  O 7   py      -0.07108  -0.00000  -0.09728  -0.10284
1227  O 7   pz       0.13804  -0.00000   0.08077   0.08412
1228  O 7   d 1     -0.00001   0.00000   0.00009  -0.00003
1229  O 7   d 2      0.00002  -0.00000  -0.00030   0.00000
1230  O 7   d 3      0.00010  -0.00000  -0.00021   0.00001
1231  O 7   d 4      0.00003   0.00000  -0.00032  -0.00010
1232  O 7   d 5      0.00005  -0.00000  -0.00004   0.00006
1233  O 7   d 1      0.00065  -0.00000  -0.00157  -0.00015
1234  O 7   d 2      0.00015  -0.00000   0.00092   0.00013
1235  O 7   d 3     -0.00017  -0.00000   0.00077  -0.00022
1236  O 7   d 4     -0.00076  -0.00000   0.00285   0.00015
1237  O 7   d 5      0.00010   0.00000   0.00068   0.00004
1238  O 7   d 1      0.00793  -0.00000   0.00402   0.01307
1239  O 7   d 2      0.00215  -0.00000  -0.00937   0.00319
1240  O 7   d 3      0.01036  -0.00000  -0.00858   0.00945
1241  O 7   d 4      0.01040  -0.00000  -0.01454   0.00438
1242  O 7   d 5      0.00403  -0.00000  -0.00238   0.00435
1243  O 7   d 1      0.02313  -0.00000   0.03633   0.04615
1244  O 7   d 2      0.00360  -0.00000  -0.01584   0.00339
1245  O 7   d 3      0.03581  -0.00000  -0.00365   0.02886
1246  O 7   d 4      0.06576  -0.00000  -0.03763   0.02403
1247  O 7   d 5      0.02537  -0.00000  -0.00125   0.01436
1248  O 7   f 1     -0.00003  -0.00000  -0.00003  -0.00003
1249  O 7   f 2     -0.00010  -0.00000  -0.00014  -0.00008
1250  O 7   f 3     -0.00005  -0.00000  -0.00010  -0.00008
1251  O 7   f 4     -0.00009  -0.00000  -0.00001  -0.00002
1252  O 7   f 5      0.00001   0.00000   0.00036  -0.00002
1253  O 7   f 6      0.00010   0.00000   0.00035   0.00005
1254  O 7   f 7      0.00002  -0.00000   0.00012   0.00005
1255  O 7   f 1     -0.00041   0.00000  -0.00014  -0.00033
1256  O 7   f 2      0.00052   0.00000   0.00041   0.00037
1257  O 7   f 3      0.00097  -0.00000   0.00039   0.00115
1258  O 7   f 4      0.00039  -0.00000  -0.00010  -0.00012
1259  O 7   f 5     -0.00015  -0.00000  -0.00242   0.00009
1260  O 7   f 6     -0.00013  -0.00000  -0.00171   0.00011
1261  O 7   f 7     -0.00081   0.00000  -0.00087  -0.00100
1262  O 7   f 1      0.00463  -0.00000  -0.00750  -0.00197
1263  O 7   f 2      0.01339   0.00000  -0.00017   0.00484
1264  O 7   f 3      0.00719  -0.00000   0.00688   0.00660
1265  O 7   f 4      0.00749  -0.00000  -0.00024   0.00140
1266  O 7   f 5      0.00885  -0.00000  -0.02583  -0.00212
1267  O 7   f 6      0.00518  -0.00000  -0.01191   0.00149
1268  O 7   f 7     -0.00347   0.00000  -0.01990  -0.00794
1269  O 7   g 1      0.00005   0.00000   0.00015   0.00006
1270  O 7   g 2      0.00003  -0.00000   0.00008   0.00006
1271  O 7   g 3     -0.00012   0.00000   0.00005  -0.00002
1272  O 7   g 4     -0.00012   0.00000  -0.00010  -0.00006
1273  O 7   g 5     -0.00003   0.00000   0.00003  -0.00004
1274  O 7   g 6      0.00004   0.00000   0.00019   0.00010
1275  O 7   g 7     -0.00003  -0.00000   0.00018   0.00005
1276  O 7   g 8      0.00012  -0.00000   0.00017   0.00009
1277  O 7   g 9      0.00013  -0.00000  -0.00001   0.00007
1278  O 7   g 1     -0.00064   0.00000  -0.00209  -0.00076
1279  O 7   g 2     -0.00020  -0.00000  -0.00166  -0.00014
1280  O 7   g 3      0.00040  -0.00000  -0.00316  -0.00046
1281  O 7   g 4      0.00131   0.00000   0.00026   0.00047
1282  O 7   g 5     -0.00058  -0.00000  -0.00124  -0.00077
1283  O 7   g 6     -0.00002  -0.00000  -0.00333  -0.00036
1284  O 7   g 7      0.00048  -0.00000  -0.00327  -0.00014
1285  O 7   g 8     -0.00089  -0.00000  -0.00193  -0.00039
1286  O 7   g 9     -0.00002  -0.00000   0.00201   0.00079
1287  O 7   h 1      0.00010   0.00000   0.00041   0.00016
1288  O 7   h 2      0.00003  -0.00000  -0.00007   0.00004
1289  O 7   h 3      0.00011  -0.00000   0.00002   0.00009
1290  O 7   h 4     -0.00006   0.00000  -0.00021  -0.00002
1291  O 7   h 5     -0.00007  -0.00000  -0.00031  -0.00010
1292  O 7   h 6     -0.00012   0.00000   0.00009  -0.00005
1293  O 7   h 7      0.00011  -0.00000   0.00007   0.00006
1294  O 7   h 8      0.00007  -0.00000  -0.00034   0.00002
1295  O 7   h 9      0.00009   0.00000   0.00005   0.00008
1296  O 7   h10      0.00009  -0.00000  -0.00001   0.00002
1297  O 7   h11      0.00003   0.00000  -0.00011  -0.00000
1298  H 13  s       -0.00103   0.00000   0.00521   0.00025
1299  H 13  s       -0.01266   0.00000   0.01277  -0.00887
1300  H 13  s        0.04277  -0.00000   0.19386   0.14898
1301  H 13  s        0.01954   0.00000  -0.14818   0.22909
1302  H 13  s        0.50836  -0.00000   1.04881   0.36674
1303  H 13  px      -0.00064  -0.00000  -0.00217  -0.00053
1304  H 13  py       0.00077  -0.00000   0.00242   0.00063
1305  H 13  pz       0.00011   0.00000  -0.00026   0.00006
1306  H 13  px      -0.00142   0.00000   0.00512  -0.00063
1307  H 13  py       0.00023   0.00000  -0.00658  -0.00058
1308  H 13  pz      -0.00161   0.00000  -0.00050  -0.00082
1309  H 13  px       0.00835  -0.00000  -0.00169   0.03380
1310  H 13  py       0.00555   0.00000   0.02506  -0.02306
1311  H 13  pz       0.02287  -0.00000   0.02296   0.01933
1312  H 13  px       0.00827  -0.00000  -0.04687   0.06036
1313  H 13  py      -0.00962   0.00000   0.04814  -0.06847
1314  H 13  pz       0.02274  -0.00000  -0.00811   0.02524
1315  H 13  d 1      0.00045  -0.00000   0.00007   0.00036
1316  H 13  d 2      0.00026   0.00000   0.00034   0.00013
1317  H 13  d 3      0.00014  -0.00000  -0.00006   0.00012
1318  H 13  d 4     -0.00052   0.00000  -0.00047  -0.00028
1319  H 13  d 5     -0.00026   0.00000  -0.00029  -0.00022
1320  H 13  d 1     -0.00235   0.00000  -0.00261  -0.00527
1321  H 13  d 2     -0.00213  -0.00000  -0.00414  -0.00214
1322  H 13  d 3     -0.00042   0.00000  -0.00043  -0.00234
1323  H 13  d 4      0.00382  -0.00000   0.00531   0.00310
1324  H 13  d 5      0.00159  -0.00000   0.00350   0.00162
1325  H 13  d 1     -0.00387   0.00000   0.02890  -0.01236
1326  H 13  d 2     -0.01242   0.00000  -0.00447  -0.00940
1327  H 13  d 3     -0.00018   0.00000   0.01744  -0.00568
1328  H 13  d 4      0.00884  -0.00000   0.00137   0.00749
1329  H 13  d 5      0.00366  -0.00000   0.00795   0.00230
1330  H 13  f 1     -0.00007   0.00000  -0.00057  -0.00034
1331  H 13  f 2     -0.00012   0.00000  -0.00056  -0.00023
1332  H 13  f 3      0.00003  -0.00000   0.00011   0.00018
1333  H 13  f 4     -0.00012  -0.00000  -0.00041  -0.00020
1334  H 13  f 5      0.00009   0.00000  -0.00006  -0.00010
1335  H 13  f 6      0.00017  -0.00000   0.00043   0.00014
1336  H 13  f 7      0.00001   0.00000  -0.00021  -0.00017
1337  H 13  f 1     -0.00181   0.00000   0.00204  -0.00202
1338  H 13  f 2     -0.00345   0.00000  -0.00133  -0.00233
1339  H 13  f 3     -0.00033  -0.00000  -0.00360   0.00025
1340  H 13  f 4     -0.00231   0.00000  -0.00097  -0.00159
1341  H 13  f 5     -0.00067   0.00000   0.00220  -0.00106
1342  H 13  f 6     -0.00024  -0.00000  -0.00144  -0.00032
1343  H 13  f 7     -0.00060  -0.00000   0.00520  -0.00091
1344  H 13  g 1     -0.00006   0.00000  -0.00017  -0.00009
1345  H 13  g 2     -0.00022   0.00000  -0.00019  -0.00016
1346  H 13  g 3     -0.00002  -0.00000  -0.00030   0.00004
1347  H 13  g 4      0.00017  -0.00000   0.00007   0.00013
1348  H 13  g 5     -0.00003   0.00000  -0.00019   0.00002
1349  H 13  g 6     -0.00019   0.00000  -0.00015  -0.00015
1350  H 13  g 7     -0.00003   0.00000  -0.00013  -0.00004
1351  H 13  g 8     -0.00016   0.00000  -0.00008  -0.00012
1352  H 13  g 9     -0.00012   0.00000   0.00021  -0.00016
1353  H 14  s        0.00088  -0.00000   0.00174   0.00028
1354  H 14  s        0.00341  -0.00000   0.00556   0.00619
1355  H 14  s       -0.14477   0.00000   0.19511  -0.07671
1356  H 14  s       -0.28413   0.00000   0.19841  -0.08507
1357  H 14  s       -0.55259   0.00000  -0.17995  -0.24897
1358  H 14  px       0.00017   0.00000   0.00043  -0.00003
1359  H 14  py      -0.00005  -0.00000   0.00008  -0.00005
1360  H 14  pz       0.00004   0.00000   0.00056  -0.00025
1361  H 14  px      -0.00112  -0.00000  -0.00051  -0.00030
1362  H 14  py       0.00034   0.00000  -0.00065  -0.00019
1363  H 14  pz      -0.00018  -0.00000  -0.00214   0.00006
1364  H 14  px       0.03631  -0.00000  -0.03065   0.01460
1365  H 14  py       0.01438  -0.00000  -0.03958   0.00392
1366  H 14  pz       0.04225  -0.00000  -0.04728   0.01669
1367  H 14  px       0.01620  -0.00000  -0.04476   0.02481
1368  H 14  py       0.06476  -0.00000  -0.02519   0.03824
1369  H 14  pz       0.06367  -0.00000  -0.03450   0.06931
1370  H 14  d 1      0.00012  -0.00000  -0.00071   0.00010
1371  H 14  d 2      0.00030  -0.00000  -0.00034   0.00019
1372  H 14  d 3      0.00018  -0.00000  -0.00004   0.00025
1373  H 14  d 4      0.00017  -0.00000  -0.00001   0.00035
1374  H 14  d 5     -0.00014   0.00000   0.00028  -0.00001
1375  H 14  d 1     -0.00143   0.00000   0.00718  -0.00068
1376  H 14  d 2     -0.00205   0.00000   0.00724  -0.00114
1377  H 14  d 3     -0.00237   0.00000   0.00336  -0.00236
1378  H 14  d 4     -0.00500   0.00000   0.00537  -0.00382
1379  H 14  d 5     -0.00115  -0.00000  -0.00106  -0.00082
1380  H 14  d 1     -0.00905   0.00000  -0.00226  -0.00404
1381  H 14  d 2     -0.00361   0.00000   0.00960  -0.00225
1382  H 14  d 3     -0.00370   0.00000  -0.00920  -0.00598
1383  H 14  d 4     -0.00978   0.00000  -0.00014  -0.00469
1384  H 14  d 5     -0.00456  -0.00000  -0.00273  -0.00137
1385  H 14  f 1     -0.00012  -0.00000  -0.00046  -0.00007
1386  H 14  f 2     -0.00001  -0.00000  -0.00074  -0.00003
1387  H 14  f 3      0.00009   0.00000  -0.00050  -0.00005
1388  H 14  f 4     -0.00013   0.00000  -0.00016  -0.00010
1389  H 14  f 5      0.00027  -0.00000  -0.00076   0.00006
1390  H 14  f 6      0.00022  -0.00000  -0.00030   0.00012
1391  H 14  f 7      0.00019   0.00000  -0.00010   0.00011
1392  H 14  f 1      0.00203  -0.00000   0.00012   0.00101
1393  H 14  f 2      0.00227  -0.00000  -0.00238   0.00163
1394  H 14  f 3      0.00028  -0.00000  -0.00145   0.00143
1395  H 14  f 4      0.00011  -0.00000   0.00266   0.00114
1396  H 14  f 5      0.00150  -0.00000   0.00276   0.00271
1397  H 14  f 6      0.00105   0.00000   0.00263   0.00079
1398  H 14  f 7     -0.00044   0.00000   0.00281  -0.00014
1399  H 14  g 1     -0.00008   0.00000  -0.00000  -0.00004
1400  H 14  g 2     -0.00012   0.00000   0.00023  -0.00005
1401  H 14  g 3     -0.00009   0.00000   0.00023  -0.00012
1402  H 14  g 4      0.00005   0.00000   0.00003  -0.00005
1403  H 14  g 5      0.00009   0.00000  -0.00006   0.00005
1404  H 14  g 6     -0.00004   0.00000  -0.00023  -0.00016
1405  H 14  g 7     -0.00007  -0.00000  -0.00016  -0.00006
1406  H 14  g 8     -0.00003  -0.00000  -0.00028  -0.00002
1407  H 14  g 9     -0.00001  -0.00000  -0.00021  -0.00002

 -----------------------------------------------------------------
                    Cartesian Multipole Moments
 -----------------------------------------------------------------
    Charge (ESU x 10^10)
                -0.0000
    Dipole Moment (Debye)
         X      -5.9623      Y       2.2990      Z       3.0191
       Tot       7.0675
    Quadrupole Moments (Debye-Ang)
        XX     -36.3025     XY       7.3399     YY      -6.0446
        XZ      -1.5468     YZ      32.9063     ZZ     -55.2510
    Octopole Moments (Debye-Ang^2)
       XXX     -17.8920    XXY      79.8991    XYY    -570.6233
       YYY    -363.0605    XXZ      22.5133    XYZ      -7.7951
       YYZ    -316.0688    XZZ     -12.6503    YZZ     -28.8928
       ZZZ      23.3546
    Hexadecapole Moments (Debye-Ang^3)
      XXXX    -756.5341   XXXY      30.1080   XXYY   -2679.5333
      XYYY    8845.9980   YYYY   -2547.7561   XXXZ     -32.1827
      XXYZ      20.6581   XYYZ     128.0275   YYYZ    6165.9947
      XXZZ    -225.4934   XYZZ      49.4821   YYZZ   -2460.4204
      XZZZ     -32.9014   YZZZ     -40.4612   ZZZZ    -562.0004
 -----------------------------------------------------------------
 Total job time:  127884.41s(wall), 252168.57s(cpu) 
 Sun Dec 22 00:13:04 2024

        *************************************************************
        *                                                           *
        *  Thank you very much for using Q-Chem.  Have a nice day.  *
        *                                                           *
        *************************************************************


