                  Welcome to Q-Chem
     A Quantum Leap Into The Future Of Chemistry


 Q-Chem 6.2 (devel), Q-Chem, Inc., Pleasanton, CA (2024)

 E. Epifanovsky,  A. T. B. Gilbert,  Xintian Feng,  Joonho Lee,  Yuezhi Mao,  
 N. Mardirossian,  P. Pokhilko,  A. White,  M. Wormit,  M. P. Coons,  
 A. L. Dempwolff,  Zhengting Gan,  D. Hait,  P. R. Horn,  L. D. Jacobson,  
 I. Kaliman,  J. Kussmann,  A. W. Lange,  Ka Un Lao,  D. S. Levine,  Jie Liu,  
 S. C. McKenzie,  A. F. Morrison,  K. D. Nanda,  F. Plasser,  D. R. Rehn,  
 M. L. Vidal,  Zhi-Qiang You,  Ying Zhu,  Huseyin Aksu,  B. Alam,  
 B. Albrecht,  A. Aldossary,  E. Alguire,  J. H. Andersen,  
 J. E. Arias-Martinez,  V. Athavale,  D. Barton,  K. Begam,  A. Behn,  
 N. Bellonzi,  Y. A. Bernard,  E. J. Berquist,  H. Burton,  A. Carreras,  
 K. Carter-Fenk,  Mathew Chow,  Romit Chakraborty,  Chandrima Chakravarty,  
 Junhan Chen,  A. D. Chien,  K. D. Closser,  V. Cofer-Shabica,  L. Cunha,  
 S. Dasgupta,  Jia Deng,  Joseph Dickinson,  M. de Wergifosse,  
 M. Diedenhofen,  Hainam Do,  Wenjie Dou,  S. Ehlert,  Po-Tung Fang,  
 S. Fatehi,  Qingguo Feng,  Jonathan Fetherolf,  T. Friedhoff,  
 Thomas Froitzheim,  Sarai Folkestad,  B. Ganoe,  J. Gayvert,  Qinghui Ge,  
 G. Gidofalvi,  M. Gimferrer,  M. Goldey,  Montgomery Gray,  J. Gomes,  
 C. Gonzalez-Espinoza,  S. Gulania,  A. Gunina,  J. A. Gyamfi,  
 M. W. D. Hanson-Heine,  P. H. P. Harbach,  A. W. Hauser,  M. F. Herbst,  
 M. Hernandez Vera,  M. Hodecker,  Z. C. Holden,  S. Houck,  Xunkun Huang,  
 Kerwin Hui,  B. C. Huynh,  K. Ikeda,  M. Ivanov,  Nayanthara K. Jayadev,  
 Hyunjun Ji,  Zuxin Jin,  Hanjie Jiang,  Subrata Jana,  B. Kaduk,  
 S. Kaehler,  R. Kang,  K. Khistyaev,  Jaehoon Kim,  Yongbin Kim,  
 P. Klunzinger,  Z. Koczor-Benda,  Joong Hoon Koh,  D. Kosenkov,  
 Saikiran Kotaru,  L. Koulias,  T. Kowalczyk,  C. M. Krauter,  K. Kue,  
 A. Kunitsa,  T. Kus,  A. Landau,  K. V. Lawler,  D. Lefrancois,  S. Lehtola,  
 Rain Li,  Shaozhi Li,  Tao E. Li,  Yi-Pei Li,  Jiashu Liang,  M. Liebenthal,  
 Hung-Hsuan Lin,  You-Sheng Lin,  Fenglai Liu,  Kuan-Yu Liu,  Xiao Liu,  
 M. Loipersberger,  A. Luenser,  C. Malbon,  Aniket Mandal,  Manisha,  
 A. Manjanath,  P. Manohar,  E. Mansoor,  S. F. Manzer,  Shan-Ping Mao,  
 A. V. Marenich,  T. Markovich,  S. Mason,  F. Matz,  S. A. Maurer,  
 Samuel May,  Alexandra McIsaac,  P. F. McLaughlin,  M. F. S. J. Menger,  
 J.-M. Mewes,  S. A. Mewes,  P. Morgante,  Mohammad Mostafanejad,  
 Madhubani Mukherjee,  J. W. Mullinax,  Quyen Nguyen,  Avik Kumar Ojha,  
 K. J. Oosterbaan,  Eno Paenurk,  Xiaoliang Pan,  G. Paran,  V. Parravicini,  
 Alexander C. Paul,  Suranjan K. Paul,  F. Pavosevic,  Zheng Pei,  S. Prager,  
 E. I. Proynov,  E. Ramos,  B. Rana,  A. E. Rask,  A. Rettig,  R. M. Richard,  
 F. Rob,  E. Rossomme,  T. Scheele,  M. Scheurer,  M. Schneider,  
 P. E. Schneider,  Tim K. Schramm,  N. Sergueev,  S. M. Sharada,  
 Hengyuan Shen,  W. Skomorowski,  D. W. Small,  C. J. Stein,  
 Alistair J. Sterling,  Yingli Su,  Yu-Chuan Su,  E. J. Sundstrom,  
 J. Talbot,  Zhen Tao,  J. Thirman,  Hung-Yi Tsai,  T. Tsuchimochi,  
 N. M. Tubman,  C. Utku,  S. P. Veccham,  O. Vydrov,  Rahel Weiss,  
 J. Wenzel,  Jonathan Wong,  J. Witte,  H. Wu,  Yanze Wu,  A. Yamada,  
 Chou-Hsun Yang,  Kun Yao,  S. Yeganeh,  S. R. Yost,  Qi Yu,  A. Zech,  
 F. Zeller,  Chongxiao Zhao,  Igor Ying Zhang,  Xing Zhang,  Yu Zhang,  
 D. Zuev,  A. Aspuru-Guzik,  A. T. Bell,  N. A. Besley,  K. B. Bravaya,  
 B. R. Brooks,  D. Casanova,  Jeng-Da Chai,  Hsing-Ta Chen,  S. Coriani,  
 C. J. Cramer,  A. E. DePrince, III,  R. A. DiStasio Jr.,  A. Dreuw,  
 B. D. Dunietz,  T. R. Furlani,  W. A. Goddard III,  S. Grimme,  
 S. Hammes-Schiffer,  T. Head-Gordon,  W. J. Hehre,  Chao-Ping Hsu,  
 T.-C. Jagau,  Yousung Jung,  A. Klamt,  Jing Kong,  D. S. Lambrecht,  
 Xiangyuan Li,  WanZhen Liang,  N. J. Mayhall,  C. W. McCurdy,  J. B. Neaton,  
 T. Neudecker,  C. Ochsenfeld,  J. A. Parkhill,  R. Peverati,  
 V. A. Rassolov,  Haisheng Ren,  Yihan Shao,  L. V. Slipchenko,  
 R. P. Steele,  J. E. Subotnik,  A. J. W. Thom,  A. Tkatchenko,  
 D. G. Truhlar,  T. Van Voorhis,  Fan Wang,  T. A. Wesolowski,  K. B. Whaley,  
 H. L. Woodcock III,  P. M. Zimmerman,  S. Faraji,  P. M. W. Gill,  
 M. Head-Gordon,  J. M. Herbert,  A. I. Krylov

 Contributors to earlier versions of Q-Chem not listed above: 
 R. D. Adamson,  B. Austin,  R. Baer,  J. Baker,  G. J. O. Beran,  
 K. Brandhorst,  S. T. Brown,  E. F. C. Byrd,  Arup K. Chakraborty,  
 G. K. L. Chan,  Chun-Min Chang,  Yunqing Chen,  C.-L. Cheng,  
 Siu Hung Chien,  D. M. Chipman,  D. L. Crittenden,  H. Dachsel,  
 R. J. Doerksen,  A. D. Dutoi,  R. G. Edgar,  J. Fosso-Tande,  
 L. Fusti-Molnar,  D. Ghosh,  A. Ghysels,  A. Golubeva-Zadorozhnaya,  
 J. Gonthier,  M. S. Gordon,  S. R. Gwaltney,  G. Hawkins,  J. E. Herr,  
 A. Heyden,  S. Hirata,  E. G. Hohenstein,  G. Kedziora,  F. J. Keil,  
 C. Kelley,  Jihan Kim,  R. A. King,  R. Z. Khaliullin,  P. P. Korambath,  
 W. Kurlancheek,  A. Laurent,  A. M. Lee,  M. S. Lee,  S. V. Levchenko,  
 Ching Yeh Lin,  D. Liotard,  E. Livshits,  R. C. Lochan,  I. Lotan,  
 L. A. Martinez-Martinez,  P. E. Maslen,  N. Nair,  D. P. O'Neill,  
 D. Neuhauser,  E. Neuscamman,  C. M. Oana,  R. Olivares-Amaya,  R. Olson,  
 T. M. Perrine,  B. Peters,  P. A. Pieniazek,  A. Prociuk,  Y. M. Rhee,  
 J. Ritchie,  M. A. Rohrdanz,  E. Rosta,  N. J. Russ,  H. F. Schaefer III,  
 M. W. Schmidt,  N. E. Schultz,  S. Sharma,  N. Shenvi,  C. D. Sherrill,  
 A. C. Simmonett,  A. Sodt,  T. Stein,  D. Stuck,  K. S. Thanthiriwatte,  
 V. Vanovschi,  L. Vogt,  Tao Wang,  A. Warshel,  M. A. Watson,  
 C. F. Williams,  Q. Wu,  X. Xu,  Jun Yang,  W. Zhang,  Yan Zhao

   Please cite Q-Chem as follows:
  "Software for the frontiers of quantum chemistry:
   An overview of developments in the Q-Chem 5 package"
   J. Chem. Phys. 155, 084801 (2021)
   https://doi.org/10.1063/5.0055522 (open access)

 Q-Chem 6.2.2 for Intel X86 EM64T Linux

 Parts of Q-Chem use Armadillo 9.900.5 (Nocturnal Misbehaviour).
 http://arma.sourceforge.net/

 Q-Chem begins on Wed Jan 15 09:48:04 2025  

 Host: compute-0-9.local
0

     Scratch files written to /scratch/keith/A2D2_2//
 Processing $rem in /home/keith/software/qchem/qchem_622/config/preferences:
 Processing $rem in /home/keith/.qchemrc:

 Checking the input file for inconsistencies... 	...done.

--------------------------------------------------------------
User input:
--------------------------------------------------------------
$molecule
read
$end

$rem
method                    b3lyp 
basis                     cc-pv5z 
mem_total                 63000
mem_static                8000
thresh                    12
scf_convergence           8
xc_grid                   000075000302
max_scf_cycles            2000
symmetry                  false
sym_ignore                true
scf_guess                 read
mom_start                 1
cis_n_roots               200
cis_triplets              false
rpa                       false 
trnss                     true
trtype                    2
n_sol                     113
nto_pairs                 2
gui                       2
print_orbitals            true
state_analysis            true
$end

$solute 
3 1413 1414 1415 1416 1417 1418 1419 1420 1421 1422 1423 1424 1425 1426 1427 1428 1429 1430 1431 1432 1433 1434 1435 1436 1437 1438 1439 1440 1441 1442 1443 1444 1445 1446 1447 1448 1449 1450 1451 1452 1453 1454 1455 1456 1457 1458 1459 1460 1461 1462 1463 1464 1465 1466 1467 1468 1469 1470 1471 1472 1473 1474 1475 1476 1477 1478 1479 1480 1481 1482 1483 1484 1485 1486 1487 1488 1489 1490 1491 1492 1493 1494 1495 1496 1497 1498 1499 1500 1501 1502 1503 1504 1505 1506 1507 1508 1509 1510 1511 1512 1513 1514 1515 1516 1517 1518 1519 1520 1521 1522 1523 1524
$end
--------------------------------------------------------------
 ----------------------------------------------------------------
             Standard Nuclear Orientation (Angstroms)
    I     Atom           X                Y                Z
 ----------------------------------------------------------------
    1      O       0.7895600000     0.0372700000     0.8055400000
    2      H       0.2217300000    -0.7211300000     0.8915400000
    3      H       0.5685300000     0.3869400000    -0.0605600000
    4      O      -3.0884400000    -1.3177300000    -0.6634600000
    5      H      -2.2427400000    -1.7147300000    -0.4890600000
    6      H      -3.6379400000    -1.7585300000    -0.0074600000
    7      O      -1.0143400000    -2.5435300000     0.6555400000
    8      H      -0.1919400000    -3.0991300000     0.5315400000
    9      H      -1.3707400000    -2.9245300000     1.4845400000
   10      O      -2.4832400000     1.3234100000    -0.4436600000
   11      H      -3.1416400000     0.5940200000    -0.3292600000
   12      H      -2.0821400000     1.3829000000     0.4435400000
   13      O      -1.1947400000     1.8483600000     2.1955400000
   14      H      -1.1642400000     2.6862700000     2.6695400000
   15      H      -0.2901400000     1.6005100000     1.9315400000
   16      O       3.6995600000    -0.9315300000     1.4845400000
   17      H       2.8950600000    -0.4775300000     1.2905400000
   18      H       3.5377600000    -1.7529300000     0.9425400000
   19      O       3.3606600000     0.9411300000    -2.2614600000
   20      H       4.0444600000     0.4452100000    -1.7672600000
   21      H       2.5403600000     0.3935200000    -2.2350600000
   22      O       0.0070900000     0.8966200000    -1.8612600000
   23      H      -0.0118400000     0.0823700000    -2.3953600000
   24      H      -0.8831400000     0.8455800000    -1.4937600000
 ----------------------------------------------------------------
 Nuclear Repulsion Energy =         436.99462664 hartrees
 There are       40 alpha and       40 beta electrons
 Requested basis set is cc-pV5Z
 There are 408 shells and 1608 basis functions

 Total QAlloc Memory Limit  63000 MB
 Mega-Array Size      7821 MB
 MEM_STATIC part      8000 MB

 A cutoff of  1.0D-12 yielded  47673 shell pairs
 There are    610043 function pairs (   1000497 Cartesian)
 Smallest overlap matrix eigenvalue = 2.20E-05

 Scale SEOQF with 1.000000e-01/1.000000e-01/1.000000e-01

 Standard Electronic Orientation quadrupole field applied
 Nucleus-field energy     =     0.0000000090 hartrees
 Guess MOs from SCF MO coefficient file

 -----------------------------------------------------------------------
  General SCF calculation program by
  Eric Jon Sundstrom, Paul Horn, Yuezhi Mao, Dmitri Zuev, Alec White,
  David Stuck, Shaama M.S., Shane Yost, Joonho Lee, David Small,
  Daniel Levine, Susi Lehtola, Hugh Burton, Evgeny Epifanovsky,
  Bang C. Huynh
 -----------------------------------------------------------------------
 Exchange:     0.2000 Hartree-Fock + 0.0800 Slater + 0.7200 B88
 Correlation:  0.1900 VWN1RPA + 0.8100 LYP
 Using Euler-Maclaurin-Lebedev (75,302) quadrature formula
 A restricted SCF calculation will be
 performed using DIIS
 SCF converges when DIIS error is below 1.0e-08
 ---------------------------------------
  Cycle       Energy         DIIS error
 ---------------------------------------
Maximum Overlap Method Active
 MOM overlap:    40.0 / 40
    1    -611.8252776477      2.43e-09  
    2    -611.8252776476      3.92e-09  Convergence criterion met
Maximum Overlap Method Active
 MOM overlap:    40.00 / 40
 ---------------------------------------
 SCF time:   CPU 19069.00s  wall 19068.00s 
 SCF   energy =  -611.82527765
 Total energy =  -611.82527765
 MAX_CIS_SUBSPACE fits in available memory
 Direct TDDFT/TDA calculation will be performed
 Exchange:     0.2000 Hartree-Fock + 0.0800 Slater + 0.7200 B88
 Correlation:  0.1900 VWN1RPA + 0.8100 LYP
 Using Euler-Maclaurin-Lebedev (75,302) quadrature formula
 Singlet excitation energies requested
 CIS energy converged when residual is below 10e- 6
   
 ***Using a Restricted Set of Single Excitations***
   
 RCIS calculation
   
 Excitations limited to defined orbital subspace
 -------------------------------------------------------------
              Orbitals in Truncated CIS space
 -------------------------------------------------------------
     314131414141514161417141814191420142114221423142414251426
  142714281429143014311432143314341435143614371438143914401441
  144214431444144514461447144814491450145114521453145414551456
  145714581459146014611462146314641465146614671468146914701471
  147214731474147514761477147814791480148114821483148414851486
  148714881489149014911492149314941495149614971498149915001501
  150215031504150515061507150815091510151115121513151415151516
  15171518151915201521152215231524
   
    Number of Occupied Orbitals =    1  out of    40
    Number of Virtual Orbitals  =  112  out of  1568
 -------------------------------------------------------------
 Number of Roots adjusted to:         112
 ---------------------------------------------------
 Iter    Rts Conv    Rts Left    Ttl Dev     Max Dev
 ---------------------------------------------------
   1       112           0      0.009598    0.000471    Roots Converged
 ---------------------------------------------------

 ---------------------------------------------------
         TDDFT/TDA Excitation Energies              
 ---------------------------------------------------

 Excited state   1: excitation energy (eV) =    1016.6751
 Total energy for state   1:                  -574.46315504 au
    Multiplicity: Singlet
    Trans. Mom.: -0.0031 X  -0.0030 Y  -0.0028 Z
    Strength   :     0.0006573025
    D(    3) --> V( 1373) amplitude =  0.5793
    D(    3) --> V( 1374) amplitude =  0.2339
    D(    3) --> V( 1376) amplitude =  0.7013
    D(    3) --> V( 1379) amplitude =  0.2273

 Excited state   2: excitation energy (eV) =    1017.3489
 Total energy for state   2:                  -574.43839635 au
    Multiplicity: Singlet
    Trans. Mom.: -0.0036 X  -0.0030 Y  -0.0018 Z
    Strength   :     0.0006270356
    D(    3) --> V( 1373) amplitude =  0.5984
    D(    3) --> V( 1374) amplitude =  0.2712
    D(    3) --> V( 1376) amplitude = -0.5543
    D(    3) --> V( 1381) amplitude = -0.3775

 Excited state   3: excitation energy (eV) =    1018.3354
 Total energy for state   3:                  -574.40214261 au
    Multiplicity: Singlet
    Trans. Mom.:  0.0067 X   0.0034 Y   0.0103 Z
    Strength   :     0.0040427280
    D(    3) --> V( 1373) amplitude =  0.2844
    D(    3) --> V( 1377) amplitude = -0.2556
    D(    3) --> V( 1379) amplitude = -0.3228
    D(    3) --> V( 1380) amplitude = -0.3786
    D(    3) --> V( 1381) amplitude =  0.7491

 Excited state   4: excitation energy (eV) =    1021.2353
 Total energy for state   4:                  -574.29557278 au
    Multiplicity: Singlet
    Trans. Mom.:  0.0011 X   0.0008 Y   0.0009 Z
    Strength   :     0.0000645996
    D(    3) --> V( 1373) amplitude = -0.3861
    D(    3) --> V( 1374) amplitude =  0.9199

 Excited state   5: excitation energy (eV) =    1022.2004
 Total energy for state   5:                  -574.26010647 au
    Multiplicity: Singlet
    Trans. Mom.: -0.0005 X  -0.0002 Y  -0.0002 Z
    Strength   :     0.0000082350
    D(    3) --> V( 1375) amplitude =  0.9747

 Excited state   6: excitation energy (eV) =    1022.3271
 Total energy for state   6:                  -574.25544908 au
    Multiplicity: Singlet
    Trans. Mom.: -0.0005 X  -0.0013 Y   0.0014 Z
    Strength   :     0.0000991031
    D(    3) --> V( 1373) amplitude =  0.2271
    D(    3) --> V( 1377) amplitude =  0.8934

 Excited state   7: excitation energy (eV) =    1022.4154
 Total energy for state   7:                  -574.25220503 au
    Multiplicity: Singlet
    Trans. Mom.: -0.0000 X  -0.0006 Y   0.0001 Z
    Strength   :     0.0000098238
    D(    3) --> V( 1378) amplitude =  0.9643

 Excited state   8: excitation energy (eV) =    1022.7556
 Total energy for state   8:                  -574.23970200 au
    Multiplicity: Singlet
    Trans. Mom.:  0.0006 X   0.0003 Y   0.0009 Z
    Strength   :     0.0000312487
    D(    3) --> V( 1376) amplitude = -0.2477
    D(    3) --> V( 1379) amplitude =  0.8892
    D(    3) --> V( 1381) amplitude =  0.3718

 Excited state   9: excitation energy (eV) =    1023.0554
 Total energy for state   9:                  -574.22868355 au
    Multiplicity: Singlet
    Trans. Mom.: -0.0006 X  -0.0007 Y   0.0005 Z
    Strength   :     0.0000288719
    D(    3) --> V( 1377) amplitude = -0.2512
    D(    3) --> V( 1380) amplitude =  0.8716
    D(    3) --> V( 1381) amplitude =  0.2505

 Excited state  10: excitation energy (eV) =    1023.8991
 Total energy for state  10:                  -574.19768059 au
    Multiplicity: Singlet
    Trans. Mom.: -0.0006 X  -0.0006 Y   0.0002 Z
    Strength   :     0.0000215150
    D(    3) --> V( 1380) amplitude = -0.2236
    D(    3) --> V( 1382) amplitude =  0.9299

 Excited state  11: excitation energy (eV) =    1024.4339
 Total energy for state  11:                  -574.17802565 au
    Multiplicity: Singlet
    Trans. Mom.:  0.0004 X   0.0015 Y  -0.0012 Z
    Strength   :     0.0000928764
    D(    3) --> V( 1383) amplitude =  0.9815

 Excited state  12: excitation energy (eV) =    1025.0352
 Total energy for state  12:                  -574.15592866 au
    Multiplicity: Singlet
    Trans. Mom.: -0.0019 X  -0.0009 Y   0.0009 Z
    Strength   :     0.0001308229
    D(    3) --> V( 1384) amplitude =  0.9163

 Excited state  13: excitation energy (eV) =    1025.4415
 Total energy for state  13:                  -574.14099936 au
    Multiplicity: Singlet
    Trans. Mom.: -0.0003 X   0.0033 Y   0.0019 Z
    Strength   :     0.0003592997
    D(    3) --> V( 1385) amplitude =  0.8943
    D(    3) --> V( 1386) amplitude =  0.4140

 Excited state  14: excitation energy (eV) =    1025.5202
 Total energy for state  14:                  -574.13810439 au
    Multiplicity: Singlet
    Trans. Mom.:  0.0055 X   0.0064 Y  -0.0016 Z
    Strength   :     0.0018520705
    D(    3) --> V( 1384) amplitude =  0.2909
    D(    3) --> V( 1385) amplitude = -0.4023
    D(    3) --> V( 1386) amplitude =  0.8278

 Excited state  15: excitation energy (eV) =    1026.4173
 Total energy for state  15:                  -574.10513918 au
    Multiplicity: Singlet
    Trans. Mom.:  0.0018 X   0.0068 Y  -0.0047 Z
    Strength   :     0.0017882766
    D(    3) --> V( 1387) amplitude =  0.9301

 Excited state  16: excitation energy (eV) =    1026.8095
 Total energy for state  16:                  -574.09072398 au
    Multiplicity: Singlet
    Trans. Mom.:  0.0037 X   0.0109 Y  -0.0082 Z
    Strength   :     0.0050320942
    D(    3) --> V( 1387) amplitude = -0.3044
    D(    3) --> V( 1388) amplitude =  0.8070
    D(    3) --> V( 1398) amplitude = -0.3321
    D(    3) --> V( 1399) amplitude =  0.2961

 Excited state  17: excitation energy (eV) =    1027.2874
 Total energy for state  17:                  -574.07316215 au
    Multiplicity: Singlet
    Trans. Mom.: -0.0021 X  -0.0109 Y   0.0102 Z
    Strength   :     0.0057535656
    D(    3) --> V( 1388) amplitude =  0.5580
    D(    3) --> V( 1398) amplitude =  0.5201
    D(    3) --> V( 1399) amplitude = -0.5021

 Excited state  18: excitation energy (eV) =    1028.1541
 Total energy for state  18:                  -574.04130967 au
    Multiplicity: Singlet
    Trans. Mom.: -0.0006 X  -0.0002 Y  -0.0010 Z
    Strength   :     0.0000343696
    D(    3) --> V( 1389) amplitude =  0.9920

 Excited state  19: excitation energy (eV) =    1028.9376
 Total energy for state  19:                  -574.01251805 au
    Multiplicity: Singlet
    Trans. Mom.:  0.0001 X  -0.0007 Y   0.0010 Z
    Strength   :     0.0000367995
    D(    3) --> V( 1390) amplitude =  0.9811

 Excited state  20: excitation energy (eV) =    1029.1588
 Total energy for state  20:                  -574.00439028 au
    Multiplicity: Singlet
    Trans. Mom.:  0.0009 X   0.0014 Y  -0.0011 Z
    Strength   :     0.0001029349
    D(    3) --> V( 1391) amplitude =  0.9876

 Excited state  21: excitation energy (eV) =    1029.2873
 Total energy for state  21:                  -573.99966748 au
    Multiplicity: Singlet
    Trans. Mom.:  0.0001 X  -0.0005 Y   0.0006 Z
    Strength   :     0.0000156815
    D(    3) --> V( 1392) amplitude =  0.9951

 Excited state  22: excitation energy (eV) =    1029.6524
 Total energy for state  22:                  -573.98624846 au
    Multiplicity: Singlet
    Trans. Mom.:  0.0015 X   0.0019 Y  -0.0001 Z
    Strength   :     0.0001510387
    D(    3) --> V( 1393) amplitude =  0.8537
    D(    3) --> V( 1394) amplitude = -0.4118
    D(    3) --> V( 1398) amplitude = -0.2177

 Excited state  23: excitation energy (eV) =    1029.9557
 Total energy for state  23:                  -573.97510539 au
    Multiplicity: Singlet
    Trans. Mom.: -0.0004 X  -0.0008 Y   0.0005 Z
    Strength   :     0.0000267731
    D(    3) --> V( 1393) amplitude = -0.2435
    D(    3) --> V( 1394) amplitude = -0.3566
    D(    3) --> V( 1395) amplitude =  0.8971

 Excited state  24: excitation energy (eV) =    1029.9652
 Total energy for state  24:                  -573.97475313 au
    Multiplicity: Singlet
    Trans. Mom.: -0.0005 X  -0.0005 Y  -0.0001 Z
    Strength   :     0.0000128930
    D(    3) --> V( 1393) amplitude =  0.3655
    D(    3) --> V( 1394) amplitude =  0.8266
    D(    3) --> V( 1395) amplitude =  0.4251

 Excited state  25: excitation energy (eV) =    1030.2653
 Total energy for state  25:                  -573.96372479 au
    Multiplicity: Singlet
    Trans. Mom.:  0.0016 X  -0.0001 Y   0.0023 Z
    Strength   :     0.0002044707
    D(    3) --> V( 1396) amplitude =  0.9792

 Excited state  26: excitation energy (eV) =    1030.7218
 Total energy for state  26:                  -573.94695169 au
    Multiplicity: Singlet
    Trans. Mom.:  0.0006 X   0.0006 Y   0.0008 Z
    Strength   :     0.0000329102
    D(    3) --> V( 1397) amplitude =  0.9648

 Excited state  27: excitation energy (eV) =    1031.2855
 Total energy for state  27:                  -573.92623623 au
    Multiplicity: Singlet
    Trans. Mom.: -0.0010 X  -0.0008 Y  -0.0012 Z
    Strength   :     0.0000810240
    D(    3) --> V( 1398) amplitude =  0.6445
    D(    3) --> V( 1399) amplitude =  0.7029

 Excited state  28: excitation energy (eV) =    1031.6694
 Total energy for state  28:                  -573.91212664 au
    Multiplicity: Singlet
    Trans. Mom.:  0.0002 X   0.0012 Y  -0.0004 Z
    Strength   :     0.0000436572
    D(    3) --> V( 1407) amplitude = -0.2266
    D(    3) --> V( 1408) amplitude =  0.8832
    D(    3) --> V( 1409) amplitude =  0.2605

 Excited state  29: excitation energy (eV) =    1032.3614
 Total energy for state  29:                  -573.88669653 au
    Multiplicity: Singlet
    Trans. Mom.:  0.0031 X   0.0029 Y   0.0020 Z
    Strength   :     0.0005576447
    D(    3) --> V( 1400) amplitude =  0.6317
    D(    3) --> V( 1402) amplitude = -0.2465
    D(    3) --> V( 1407) amplitude = -0.3011
    D(    3) --> V( 1409) amplitude = -0.5740

 Excited state  30: excitation energy (eV) =    1032.5579
 Total energy for state  30:                  -573.87947628 au
    Multiplicity: Singlet
    Trans. Mom.: -0.0011 X  -0.0005 Y  -0.0015 Z
    Strength   :     0.0000984836
    D(    3) --> V( 1400) amplitude =  0.7499
    D(    3) --> V( 1402) amplitude =  0.2251
    D(    3) --> V( 1407) amplitude =  0.3000
    D(    3) --> V( 1409) amplitude =  0.4055

 Excited state  31: excitation energy (eV) =    1032.8085
 Total energy for state  31:                  -573.87026682 au
    Multiplicity: Singlet
    Trans. Mom.:  0.0002 X   0.0007 Y  -0.0003 Z
    Strength   :     0.0000146409
    D(    3) --> V( 1401) amplitude =  0.9861

 Excited state  32: excitation energy (eV) =    1033.6365
 Total energy for state  32:                  -573.83983767 au
    Multiplicity: Singlet
    Trans. Mom.: -0.0022 X   0.0005 Y  -0.0022 Z
    Strength   :     0.0002521201
    D(    3) --> V( 1402) amplitude =  0.9284
    D(    3) --> V( 1409) amplitude = -0.2913

 Excited state  33: excitation energy (eV) =    1033.8884
 Total energy for state  33:                  -573.83058069 au
    Multiplicity: Singlet
    Trans. Mom.:  0.0000 X   0.0003 Y   0.0020 Z
    Strength   :     0.0000984226
    D(    3) --> V( 1403) amplitude =  0.9660

 Excited state  34: excitation energy (eV) =    1034.1805
 Total energy for state  34:                  -573.81984678 au
    Multiplicity: Singlet
    Trans. Mom.: -0.0004 X  -0.0001 Y   0.0003 Z
    Strength   :     0.0000066847
    D(    3) --> V( 1404) amplitude =  0.9846

 Excited state  35: excitation energy (eV) =    1034.9077
 Total energy for state  35:                  -573.79312106 au
    Multiplicity: Singlet
    Trans. Mom.: -0.0007 X   0.0021 Y   0.0022 Z
    Strength   :     0.0002517904
    D(    3) --> V( 1405) amplitude =  0.9873

 Excited state  36: excitation energy (eV) =    1035.7845
 Total energy for state  36:                  -573.76089897 au
    Multiplicity: Singlet
    Trans. Mom.: -0.0004 X  -0.0005 Y  -0.0004 Z
    Strength   :     0.0000144658
    D(    3) --> V( 1406) amplitude =  0.9619
    D(    3) --> V( 1407) amplitude = -0.2352

 Excited state  37: excitation energy (eV) =    1036.1031
 Total energy for state  37:                  -573.74918947 au
    Multiplicity: Singlet
    Trans. Mom.:  0.0031 X   0.0002 Y   0.0014 Z
    Strength   :     0.0003027571
    D(    3) --> V( 1407) amplitude =  0.8025
    D(    3) --> V( 1408) amplitude =  0.3507
    D(    3) --> V( 1409) amplitude = -0.4626

 Excited state  38: excitation energy (eV) =    1037.3136
 Total energy for state  38:                  -573.70470694 au
    Multiplicity: Singlet
    Trans. Mom.: -0.0025 X   0.0031 Y   0.0027 Z
    Strength   :     0.0005995404
    D(    3) --> V( 1410) amplitude =  0.9942

 Excited state  39: excitation energy (eV) =    1038.5987
 Total energy for state  39:                  -573.65747922 au
    Multiplicity: Singlet
    Trans. Mom.:  0.0019 X  -0.0009 Y   0.0038 Z
    Strength   :     0.0004742033
    D(    3) --> V( 1411) amplitude =  0.9776

 Excited state  40: excitation energy (eV) =    1041.2526
 Total energy for state  40:                  -573.55994896 au
    Multiplicity: Singlet
    Trans. Mom.:  0.0003 X   0.0022 Y  -0.0030 Z
    Strength   :     0.0003584590
    D(    3) --> V( 1412) amplitude = -0.3726
    D(    3) --> V( 1414) amplitude =  0.5068
    D(    3) --> V( 1420) amplitude =  0.5171
    D(    3) --> V( 1421) amplitude =  0.4178

 Excited state  41: excitation energy (eV) =    1041.5224
 Total energy for state  41:                  -573.55003417 au
    Multiplicity: Singlet
    Trans. Mom.:  0.0006 X   0.0009 Y  -0.0001 Z
    Strength   :     0.0000313818
    D(    3) --> V( 1412) amplitude =  0.9072
    D(    3) --> V( 1413) amplitude =  0.2237

 Excited state  42: excitation energy (eV) =    1041.7185
 Total energy for state  42:                  -573.54282829 au
    Multiplicity: Singlet
    Trans. Mom.: -0.0002 X  -0.0000 Y   0.0004 Z
    Strength   :     0.0000040932
    D(    3) --> V( 1413) amplitude =  0.9706

 Excited state  43: excitation energy (eV) =    1042.9531
 Total energy for state  43:                  -573.49745798 au
    Multiplicity: Singlet
    Trans. Mom.: -0.0019 X  -0.0026 Y   0.0010 Z
    Strength   :     0.0002892766
    D(    3) --> V( 1414) amplitude =  0.7858
    D(    3) --> V( 1420) amplitude = -0.3660
    D(    3) --> V( 1421) amplitude = -0.3031

 Excited state  44: excitation energy (eV) =    1043.4055
 Total energy for state  44:                  -573.48083107 au
    Multiplicity: Singlet
    Trans. Mom.:  0.0011 X   0.0010 Y   0.0000 Z
    Strength   :     0.0000572440
    D(    3) --> V( 1414) amplitude = -0.2603
    D(    3) --> V( 1415) amplitude = -0.2776
    D(    3) --> V( 1418) amplitude = -0.2190
    D(    3) --> V( 1430) amplitude =  0.4711
    D(    3) --> V( 1433) amplitude =  0.5892

 Excited state  45: excitation energy (eV) =    1043.9727
 Total energy for state  45:                  -573.45998933 au
    Multiplicity: Singlet
    Trans. Mom.:  0.0002 X   0.0013 Y  -0.0003 Z
    Strength   :     0.0000475783
    D(    3) --> V( 1415) amplitude =  0.9479

 Excited state  46: excitation energy (eV) =    1044.2547
 Total energy for state  46:                  -573.44962663 au
    Multiplicity: Singlet
    Trans. Mom.:  0.0002 X  -0.0001 Y   0.0005 Z
    Strength   :     0.0000071666
    D(    3) --> V( 1416) amplitude =  0.9879

 Excited state  47: excitation energy (eV) =    1044.3287
 Total energy for state  47:                  -573.44690411 au
    Multiplicity: Singlet
    Trans. Mom.:  0.0018 X  -0.0001 Y   0.0009 Z
    Strength   :     0.0001037344
    D(    3) --> V( 1417) amplitude =  0.5155
    D(    3) --> V( 1418) amplitude =  0.7123
    D(    3) --> V( 1430) amplitude =  0.2600

 Excited state  48: excitation energy (eV) =    1044.4248
 Total energy for state  48:                  -573.44337305 au
    Multiplicity: Singlet
    Trans. Mom.: -0.0020 X   0.0011 Y  -0.0012 Z
    Strength   :     0.0001742833
    D(    3) --> V( 1417) amplitude =  0.7785
    D(    3) --> V( 1418) amplitude = -0.3901
    D(    3) --> V( 1437) amplitude =  0.2266

 Excited state  49: excitation energy (eV) =    1044.4910
 Total energy for state  49:                  -573.44094053 au
    Multiplicity: Singlet
    Trans. Mom.: -0.0036 X   0.0022 Y  -0.0016 Z
    Strength   :     0.0005233287
    D(    3) --> V( 1417) amplitude = -0.2291
    D(    3) --> V( 1418) amplitude =  0.5234
    D(    3) --> V( 1429) amplitude = -0.2912
    D(    3) --> V( 1435) amplitude = -0.2570
    D(    3) --> V( 1437) amplitude =  0.3826
    D(    3) --> V( 1439) amplitude = -0.2785
    D(    3) --> V( 1440) amplitude = -0.2325

 Excited state  50: excitation energy (eV) =    1045.3970
 Total energy for state  50:                  -573.40764637 au
    Multiplicity: Singlet
    Trans. Mom.:  0.0008 X  -0.0004 Y  -0.0003 Z
    Strength   :     0.0000226428
    D(    3) --> V( 1419) amplitude =  0.9808

 Excited state  51: excitation energy (eV) =    1045.5906
 Total energy for state  51:                  -573.40053049 au
    Multiplicity: Singlet
    Trans. Mom.:  0.0019 X  -0.0012 Y  -0.0024 Z
    Strength   :     0.0002729411
    D(    3) --> V( 1440) amplitude =  0.7985
    D(    3) --> V( 1442) amplitude =  0.2748
    D(    3) --> V( 1443) amplitude =  0.2371

 Excited state  52: excitation energy (eV) =    1046.0979
 Total energy for state  52:                  -573.38188748 au
    Multiplicity: Singlet
    Trans. Mom.: -0.0005 X   0.0002 Y   0.0000 Z
    Strength   :     0.0000075478
    D(    3) --> V( 1420) amplitude = -0.6463
    D(    3) --> V( 1421) amplitude =  0.7470

 Excited state  53: excitation energy (eV) =    1046.5122
 Total energy for state  53:                  -573.36666536 au
    Multiplicity: Singlet
    Trans. Mom.: -0.0005 X   0.0002 Y   0.0003 Z
    Strength   :     0.0000103842
    D(    3) --> V( 1421) amplitude = -0.2703
    D(    3) --> V( 1422) amplitude =  0.8948
    D(    3) --> V( 1423) amplitude =  0.2540

 Excited state  54: excitation energy (eV) =    1046.7112
 Total energy for state  54:                  -573.35934981 au
    Multiplicity: Singlet
    Trans. Mom.:  0.0003 X  -0.0001 Y   0.0005 Z
    Strength   :     0.0000106581
    D(    3) --> V( 1422) amplitude = -0.2970
    D(    3) --> V( 1423) amplitude =  0.9169

 Excited state  55: excitation energy (eV) =    1047.3566
 Total energy for state  55:                  -573.33563085 au
    Multiplicity: Singlet
    Trans. Mom.: -0.0007 X   0.0002 Y  -0.0003 Z
    Strength   :     0.0000174217
    D(    3) --> V( 1424) amplitude =  0.8568
    D(    3) --> V( 1425) amplitude = -0.4584

 Excited state  56: excitation energy (eV) =    1047.4983
 Total energy for state  56:                  -573.33042654 au
    Multiplicity: Singlet
    Trans. Mom.:  0.0005 X  -0.0008 Y   0.0003 Z
    Strength   :     0.0000227212
    D(    3) --> V( 1424) amplitude =  0.4586
    D(    3) --> V( 1425) amplitude =  0.8679

 Excited state  57: excitation energy (eV) =    1047.7409
 Total energy for state  57:                  -573.32151075 au
    Multiplicity: Singlet
    Trans. Mom.: -0.0003 X  -0.0001 Y   0.0002 Z
    Strength   :     0.0000039318
    D(    3) --> V( 1426) amplitude =  0.7798
    D(    3) --> V( 1427) amplitude = -0.5183

 Excited state  58: excitation energy (eV) =    1048.0442
 Total energy for state  58:                  -573.31036427 au
    Multiplicity: Singlet
    Trans. Mom.: -0.0005 X   0.0003 Y   0.0008 Z
    Strength   :     0.0000242428
    D(    3) --> V( 1426) amplitude =  0.5591
    D(    3) --> V( 1427) amplitude =  0.7801

 Excited state  59: excitation energy (eV) =    1048.8458
 Total energy for state  59:                  -573.28090390 au
    Multiplicity: Singlet
    Trans. Mom.: -0.0000 X  -0.0000 Y  -0.0000 Z
    Strength   :     0.0000000762
    D(    3) --> V( 1428) amplitude =  0.9977

 Excited state  60: excitation energy (eV) =    1049.4106
 Total energy for state  60:                  -573.26015043 au
    Multiplicity: Singlet
    Trans. Mom.:  0.0005 X  -0.0005 Y   0.0009 Z
    Strength   :     0.0000358686
    D(    3) --> V( 1429) amplitude =  0.7835
    D(    3) --> V( 1430) amplitude = -0.5450

 Excited state  61: excitation energy (eV) =    1049.7778
 Total energy for state  61:                  -573.24665670 au
    Multiplicity: Singlet
    Trans. Mom.:  0.0001 X  -0.0001 Y  -0.0004 Z
    Strength   :     0.0000043089
    D(    3) --> V( 1431) amplitude =  0.9293
    D(    3) --> V( 1433) amplitude =  0.2641

 Excited state  62: excitation energy (eV) =    1049.9895
 Total energy for state  62:                  -573.23887683 au
    Multiplicity: Singlet
    Trans. Mom.: -0.0011 X   0.0007 Y  -0.0019 Z
    Strength   :     0.0001356747
    D(    3) --> V( 1429) amplitude =  0.2871
    D(    3) --> V( 1430) amplitude =  0.5325
    D(    3) --> V( 1432) amplitude = -0.4620
    D(    3) --> V( 1433) amplitude = -0.5201
    D(    3) --> V( 1437) amplitude =  0.2891

 Excited state  63: excitation energy (eV) =    1050.2916
 Total energy for state  63:                  -573.22777377 au
    Multiplicity: Singlet
    Trans. Mom.: -0.0012 X   0.0007 Y  -0.0016 Z
    Strength   :     0.0001162813
    D(    3) --> V( 1432) amplitude =  0.8032
    D(    3) --> V( 1433) amplitude = -0.2542
    D(    3) --> V( 1435) amplitude = -0.2912
    D(    3) --> V( 1437) amplitude =  0.2740
    D(    3) --> V( 1439) amplitude = -0.2123

 Excited state  64: excitation energy (eV) =    1050.4103
 Total energy for state  64:                  -573.22341065 au
    Multiplicity: Singlet
    Trans. Mom.: -0.0006 X   0.0009 Y   0.0001 Z
    Strength   :     0.0000280777
    D(    3) --> V( 1434) amplitude =  0.9461

 Excited state  65: excitation energy (eV) =    1050.6448
 Total energy for state  65:                  -573.21479436 au
    Multiplicity: Singlet
    Trans. Mom.: -0.0010 X   0.0007 Y   0.0003 Z
    Strength   :     0.0000412777
    D(    3) --> V( 1435) amplitude =  0.7863
    D(    3) --> V( 1437) amplitude =  0.3898
    D(    3) --> V( 1438) amplitude =  0.3757

 Excited state  66: excitation energy (eV) =    1050.8082
 Total energy for state  66:                  -573.20878676 au
    Multiplicity: Singlet
    Trans. Mom.:  0.0002 X  -0.0000 Y  -0.0000 Z
    Strength   :     0.0000015826
    D(    3) --> V( 1436) amplitude =  0.9920

 Excited state  67: excitation energy (eV) =    1050.9621
 Total energy for state  67:                  -573.20313268 au
    Multiplicity: Singlet
    Trans. Mom.: -0.0004 X  -0.0011 Y   0.0000 Z
    Strength   :     0.0000350118
    D(    3) --> V( 1437) amplitude =  0.5856
    D(    3) --> V( 1438) amplitude = -0.4460
    D(    3) --> V( 1439) amplitude =  0.6642

 Excited state  68: excitation energy (eV) =    1051.0882
 Total energy for state  68:                  -573.19849894 au
    Multiplicity: Singlet
    Trans. Mom.:  0.0002 X  -0.0007 Y   0.0003 Z
    Strength   :     0.0000157035
    D(    3) --> V( 1435) amplitude = -0.2886
    D(    3) --> V( 1438) amplitude =  0.7766
    D(    3) --> V( 1439) amplitude =  0.5299

 Excited state  69: excitation energy (eV) =    1051.8845
 Total energy for state  69:                  -573.16923433 au
    Multiplicity: Singlet
    Trans. Mom.: -0.0063 X   0.0047 Y   0.0013 Z
    Strength   :     0.0016516334
    D(    3) --> V( 1440) amplitude = -0.3051
    D(    3) --> V( 1441) amplitude =  0.4542
    D(    3) --> V( 1442) amplitude =  0.5406
    D(    3) --> V( 1452) amplitude = -0.5181

 Excited state  70: excitation energy (eV) =    1052.5307
 Total energy for state  70:                  -573.14548816 au
    Multiplicity: Singlet
    Trans. Mom.:  0.0059 X  -0.0043 Y  -0.0052 Z
    Strength   :     0.0020744680
    D(    3) --> V( 1441) amplitude =  0.6155
    D(    3) --> V( 1443) amplitude = -0.2625
    D(    3) --> V( 1452) amplitude =  0.6627

 Excited state  71: excitation energy (eV) =    1052.8558
 Total energy for state  71:                  -573.13353939 au
    Multiplicity: Singlet
    Trans. Mom.:  0.0020 X  -0.0024 Y  -0.0016 Z
    Strength   :     0.0003137543
    D(    3) --> V( 1441) amplitude = -0.5903
    D(    3) --> V( 1442) amplitude =  0.7393
    D(    3) --> V( 1452) amplitude =  0.2523

 Excited state  72: excitation energy (eV) =    1053.2152
 Total energy for state  72:                  -573.12033231 au
    Multiplicity: Singlet
    Trans. Mom.:  0.0016 X  -0.0014 Y  -0.0013 Z
    Strength   :     0.0001555171
    D(    3) --> V( 1440) amplitude = -0.2312
    D(    3) --> V( 1443) amplitude =  0.8969
    D(    3) --> V( 1452) amplitude =  0.3477

 Excited state  73: excitation energy (eV) =    1053.8834
 Total energy for state  73:                  -573.09577605 au
    Multiplicity: Singlet
    Trans. Mom.: -0.0007 X   0.0004 Y  -0.0002 Z
    Strength   :     0.0000181782
    D(    3) --> V( 1444) amplitude =  0.9976

 Excited state  74: excitation energy (eV) =    1054.3828
 Total energy for state  74:                  -573.07742480 au
    Multiplicity: Singlet
    Trans. Mom.: -0.0003 X   0.0008 Y   0.0001 Z
    Strength   :     0.0000213825
    D(    3) --> V( 1445) amplitude =  0.9845

 Excited state  75: excitation energy (eV) =    1054.5361
 Total energy for state  75:                  -573.07178905 au
    Multiplicity: Singlet
    Trans. Mom.: -0.0010 X   0.0009 Y  -0.0038 Z
    Strength   :     0.0004158896
    D(    3) --> V( 1446) amplitude =  0.9444
    D(    3) --> V( 1447) amplitude =  0.2373

 Excited state  76: excitation energy (eV) =    1055.3203
 Total energy for state  76:                  -573.04297190 au
    Multiplicity: Singlet
    Trans. Mom.: -0.0009 X   0.0010 Y  -0.0021 Z
    Strength   :     0.0001616592
    D(    3) --> V( 1446) amplitude = -0.2610
    D(    3) --> V( 1447) amplitude =  0.9586

 Excited state  77: excitation energy (eV) =    1056.5363
 Total energy for state  77:                  -572.99828335 au
    Multiplicity: Singlet
    Trans. Mom.:  0.0005 X  -0.0005 Y   0.0010 Z
    Strength   :     0.0000398067
    D(    3) --> V( 1448) amplitude =  0.9627
    D(    3) --> V( 1449) amplitude = -0.2595

 Excited state  78: excitation energy (eV) =    1056.5796
 Total energy for state  78:                  -572.99669500 au
    Multiplicity: Singlet
    Trans. Mom.: -0.0005 X   0.0010 Y   0.0003 Z
    Strength   :     0.0000358696
    D(    3) --> V( 1448) amplitude =  0.2570
    D(    3) --> V( 1449) amplitude =  0.9519

 Excited state  79: excitation energy (eV) =    1057.5146
 Total energy for state  79:                  -572.96233414 au
    Multiplicity: Singlet
    Trans. Mom.: -0.0003 X  -0.0014 Y   0.0004 Z
    Strength   :     0.0000555878
    D(    3) --> V( 1450) amplitude =  0.9510
    D(    3) --> V( 1456) amplitude = -0.2358

 Excited state  80: excitation energy (eV) =    1058.1231
 Total energy for state  80:                  -572.93997067 au
    Multiplicity: Singlet
    Trans. Mom.:  0.0017 X   0.0031 Y  -0.0020 Z
    Strength   :     0.0004155854
    D(    3) --> V( 1451) amplitude =  0.7188
    D(    3) --> V( 1456) amplitude =  0.6519

 Excited state  81: excitation energy (eV) =    1058.3517
 Total energy for state  81:                  -572.93157180 au
    Multiplicity: Singlet
    Trans. Mom.:  0.0010 X   0.0031 Y  -0.0018 Z
    Strength   :     0.0003521393
    D(    3) --> V( 1451) amplitude = -0.6847
    D(    3) --> V( 1456) amplitude =  0.6891

 Excited state  82: excitation energy (eV) =    1060.6096
 Total energy for state  82:                  -572.84859340 au
    Multiplicity: Singlet
    Trans. Mom.:  0.0003 X  -0.0000 Y   0.0001 Z
    Strength   :     0.0000022249
    D(    3) --> V( 1453) amplitude =  0.9995

 Excited state  83: excitation energy (eV) =    1061.3737
 Total energy for state  83:                  -572.82051513 au
    Multiplicity: Singlet
    Trans. Mom.: -0.0003 X  -0.0004 Y  -0.0009 Z
    Strength   :     0.0000270116
    D(    3) --> V( 1454) amplitude =  0.9918

 Excited state  84: excitation energy (eV) =    1062.3812
 Total energy for state  84:                  -572.78348871 au
    Multiplicity: Singlet
    Trans. Mom.:  0.0000 X  -0.0000 Y   0.0000 Z
    Strength   :     0.0000001318
    D(    3) --> V( 1455) amplitude =  0.9989

 Excited state  85: excitation energy (eV) =    1078.1846
 Total energy for state  85:                  -572.20272302 au
    Multiplicity: Singlet
    Trans. Mom.:  0.0002 X  -0.0001 Y   0.0004 Z
    Strength   :     0.0000046612
    D(    3) --> V( 1457) amplitude =  0.9999

 Excited state  86: excitation energy (eV) =    1079.5866
 Total energy for state  86:                  -572.15120147 au
    Multiplicity: Singlet
    Trans. Mom.: -0.0009 X  -0.0009 Y  -0.0004 Z
    Strength   :     0.0000456957
    D(    3) --> V( 1458) amplitude =  0.9284
    D(    3) --> V( 1459) amplitude =  0.3652

 Excited state  87: excitation energy (eV) =    1079.6290
 Total energy for state  87:                  -572.14964448 au
    Multiplicity: Singlet
    Trans. Mom.: -0.0008 X  -0.0013 Y   0.0003 Z
    Strength   :     0.0000599098
    D(    3) --> V( 1458) amplitude = -0.3682
    D(    3) --> V( 1459) amplitude =  0.9286

 Excited state  88: excitation energy (eV) =    1081.1347
 Total energy for state  88:                  -572.09431087 au
    Multiplicity: Singlet
    Trans. Mom.: -0.0003 X  -0.0001 Y  -0.0005 Z
    Strength   :     0.0000091361
    D(    3) --> V( 1460) amplitude =  0.9987

 Excited state  89: excitation energy (eV) =    1081.4838
 Total energy for state  89:                  -572.08148088 au
    Multiplicity: Singlet
    Trans. Mom.:  0.0077 X   0.0037 Y   0.0071 Z
    Strength   :     0.0032762639
    D(    3) --> V( 1461) amplitude = -0.5801
    D(    3) --> V( 1469) amplitude =  0.2225
    D(    3) --> V( 1470) amplitude =  0.7349

 Excited state  90: excitation energy (eV) =    1082.6055
 Total energy for state  90:                  -572.04026060 au
    Multiplicity: Singlet
    Trans. Mom.:  0.0049 X   0.0021 Y   0.0040 Z
    Strength   :     0.0011692005
    D(    3) --> V( 1461) amplitude =  0.8124
    D(    3) --> V( 1470) amplitude =  0.5115

 Excited state  91: excitation energy (eV) =    1083.4883
 Total energy for state  91:                  -572.00781771 au
    Multiplicity: Singlet
    Trans. Mom.:  0.0012 X   0.0009 Y   0.0006 Z
    Strength   :     0.0000688951
    D(    3) --> V( 1462) amplitude =  0.8540
    D(    3) --> V( 1463) amplitude = -0.4987

 Excited state  92: excitation energy (eV) =    1083.5562
 Total energy for state  92:                  -572.00532095 au
    Multiplicity: Singlet
    Trans. Mom.:  0.0006 X   0.0004 Y   0.0004 Z
    Strength   :     0.0000176837
    D(    3) --> V( 1462) amplitude =  0.4916
    D(    3) --> V( 1463) amplitude =  0.8666

 Excited state  93: excitation energy (eV) =    1084.4540
 Total energy for state  93:                  -571.97232737 au
    Multiplicity: Singlet
    Trans. Mom.:  0.0017 X   0.0026 Y  -0.0012 Z
    Strength   :     0.0002909264
    D(    3) --> V( 1464) amplitude =  0.9687

 Excited state  94: excitation energy (eV) =    1085.3424
 Total energy for state  94:                  -571.93968017 au
    Multiplicity: Singlet
    Trans. Mom.:  0.0051 X   0.0172 Y  -0.0144 Z
    Strength   :     0.0141147460
    D(    3) --> V( 1472) amplitude =  0.9632

 Excited state  95: excitation energy (eV) =    1085.7932
 Total energy for state  95:                  -571.92311435 au
    Multiplicity: Singlet
    Trans. Mom.:  0.0012 X   0.0024 Y  -0.0011 Z
    Strength   :     0.0002274162
    D(    3) --> V( 1465) amplitude =  0.9827

 Excited state  96: excitation energy (eV) =    1086.5258
 Total energy for state  96:                  -571.89619261 au
    Multiplicity: Singlet
    Trans. Mom.: -0.0005 X  -0.0011 Y   0.0007 Z
    Strength   :     0.0000543732
    D(    3) --> V( 1466) amplitude =  0.9960

 Excited state  97: excitation energy (eV) =    1086.8992
 Total energy for state  97:                  -571.88246767 au
    Multiplicity: Singlet
    Trans. Mom.:  0.0001 X   0.0009 Y  -0.0010 Z
    Strength   :     0.0000454743
    D(    3) --> V( 1467) amplitude =  0.9785

 Excited state  98: excitation energy (eV) =    1087.1752
 Total energy for state  98:                  -571.87232655 au
    Multiplicity: Singlet
    Trans. Mom.:  0.0005 X  -0.0007 Y   0.0001 Z
    Strength   :     0.0000199508
    D(    3) --> V( 1468) amplitude =  0.9938

 Excited state  99: excitation energy (eV) =    1088.0812
 Total energy for state  99:                  -571.83903215 au
    Multiplicity: Singlet
    Trans. Mom.: -0.0006 X  -0.0001 Y  -0.0010 Z
    Strength   :     0.0000349995
    D(    3) --> V( 1469) amplitude =  0.9510
    D(    3) --> V( 1470) amplitude = -0.3013

 Excited state 100: excitation energy (eV) =    1090.7426
 Total energy for state 100:                  -571.74122736 au
    Multiplicity: Singlet
    Trans. Mom.: -0.0003 X  -0.0004 Y   0.0003 Z
    Strength   :     0.0000104445
    D(    3) --> V( 1471) amplitude =  0.9843

 Excited state 101: excitation energy (eV) =    1111.4439
 Total energy for state 101:                  -570.98046715 au
    Multiplicity: Singlet
    Trans. Mom.:  0.0019 X   0.0096 Y   0.0119 Z
    Strength   :     0.0064379498
    D(    3) --> V( 1475) amplitude = -0.3043
    D(    3) --> V( 1478) amplitude = -0.5401
    D(    3) --> V( 1480) amplitude =  0.5755
    D(    3) --> V( 1484) amplitude = -0.3923

 Excited state 102: excitation energy (eV) =    1114.9123
 Total energy for state 102:                  -570.85300750 au
    Multiplicity: Singlet
    Trans. Mom.:  0.0020 X   0.0002 Y   0.0002 Z
    Strength   :     0.0001141420
    D(    3) --> V( 1473) amplitude =  0.9892

 Excited state 103: excitation energy (eV) =    1115.3372
 Total energy for state 103:                  -570.83739064 au
    Multiplicity: Singlet
    Trans. Mom.:  0.0014 X  -0.0010 Y   0.0000 Z
    Strength   :     0.0000860715
    D(    3) --> V( 1474) amplitude =  0.9753

 Excited state 104: excitation energy (eV) =    1115.8395
 Total energy for state 104:                  -570.81893155 au
    Multiplicity: Singlet
    Trans. Mom.:  0.0065 X  -0.0005 Y   0.0011 Z
    Strength   :     0.0011810810
    D(    3) --> V( 1476) amplitude =  0.6944
    D(    3) --> V( 1479) amplitude = -0.2452
    D(    3) --> V( 1481) amplitude = -0.5060
    D(    3) --> V( 1484) amplitude =  0.3232

 Excited state 105: excitation energy (eV) =    1116.1801
 Total energy for state 105:                  -570.80641568 au
    Multiplicity: Singlet
    Trans. Mom.: -0.0005 X   0.0004 Y   0.0004 Z
    Strength   :     0.0000160419
    D(    3) --> V( 1475) amplitude =  0.9456

 Excited state 106: excitation energy (eV) =    1116.2427
 Total energy for state 106:                  -570.80411509 au
    Multiplicity: Singlet
    Trans. Mom.: -0.0049 X   0.0008 Y  -0.0017 Z
    Strength   :     0.0007561125
    D(    3) --> V( 1476) amplitude =  0.6630
    D(    3) --> V( 1478) amplitude =  0.4295
    D(    3) --> V( 1479) amplitude =  0.3023
    D(    3) --> V( 1481) amplitude =  0.4253

 Excited state 107: excitation energy (eV) =    1117.0127
 Total energy for state 107:                  -570.77581859 au
    Multiplicity: Singlet
    Trans. Mom.: -0.0004 X  -0.0005 Y  -0.0001 Z
    Strength   :     0.0000127181
    D(    3) --> V( 1477) amplitude =  0.9490
    D(    3) --> V( 1478) amplitude =  0.3083

 Excited state 108: excitation energy (eV) =    1117.2759
 Total energy for state 108:                  -570.76614507 au
    Multiplicity: Singlet
    Trans. Mom.:  0.0002 X  -0.0002 Y  -0.0000 Z
    Strength   :     0.0000017563
    D(    3) --> V( 1478) amplitude = -0.4536
    D(    3) --> V( 1479) amplitude =  0.8450
    D(    3) --> V( 1480) amplitude = -0.2365

 Excited state 109: excitation energy (eV) =    1117.3892
 Total energy for state 109:                  -570.76198231 au
    Multiplicity: Singlet
    Trans. Mom.:  0.0022 X   0.0003 Y   0.0009 Z
    Strength   :     0.0001551745
    D(    3) --> V( 1478) amplitude =  0.3716
    D(    3) --> V( 1479) amplitude =  0.3406
    D(    3) --> V( 1480) amplitude =  0.6598
    D(    3) --> V( 1481) amplitude = -0.5116

 Excited state 110: excitation energy (eV) =    1118.6646
 Total energy for state 110:                  -570.71511153 au
    Multiplicity: Singlet
    Trans. Mom.:  0.0005 X  -0.0013 Y  -0.0003 Z
    Strength   :     0.0000542686
    D(    3) --> V( 1480) amplitude =  0.2629
    D(    3) --> V( 1481) amplitude =  0.4061
    D(    3) --> V( 1482) amplitude =  0.4775
    D(    3) --> V( 1483) amplitude = -0.4677
    D(    3) --> V( 1484) amplitude =  0.5393

 Excited state 111: excitation energy (eV) =    1118.8366
 Total energy for state 111:                  -570.70878919 au
    Multiplicity: Singlet
    Trans. Mom.:  0.0004 X   0.0006 Y   0.0006 Z
    Strength   :     0.0000244531
    D(    3) --> V( 1482) amplitude =  0.8356
    D(    3) --> V( 1483) amplitude =  0.4672
    D(    3) --> V( 1484) amplitude = -0.2576

 Excited state 112: excitation energy (eV) =    1119.0135
 Total energy for state 112:                  -570.70229158 au
    Multiplicity: Singlet
    Trans. Mom.:  0.0010 X  -0.0005 Y   0.0001 Z
    Strength   :     0.0000362480
    D(    3) --> V( 1481) amplitude =  0.3126
    D(    3) --> V( 1482) amplitude = -0.2280
    D(    3) --> V( 1483) amplitude =  0.7366
    D(    3) --> V( 1484) amplitude =  0.5416

 ---------------------------------------------------
  SETman timing summary (seconds)
  CPU time            218846.36s
  System time              0.00s
  Wall time           218839.22s
================================================================================
                             Excited State Analysis
================================================================================

  Ground State (Reference) :
  -------------------------
    NOs
      Occupation of frontier NOs:
         0.0000   0.0000   2.0000   2.0000
      Number of electrons: 80.000000
      Number of unpaired electrons: n_u =  0.00000, n_u,nl =  0.00000
    
    Mulliken Population Analysis (State DM)
    Atom      Charge (e)
    --------------------
     1 O       -0.798585
     2 H        0.345761
     3 H        0.400148
     4 O       -0.675587
     5 H        0.379909
     6 H        0.301560
     7 O       -0.643364
     8 H        0.338363
     9 H        0.338833
    10 O       -0.730661
    11 H        0.367892
    12 H        0.365072
    13 O       -0.656361
    14 H        0.307088
    15 H        0.355670
    16 O       -0.630963
    17 H        0.370669
    18 H        0.255303
    19 O       -0.598028
    20 H        0.287297
    21 H        0.305360
    22 O       -0.668249
    23 H        0.298034
    24 H        0.384837
    --------------------
    Sum:        0.000000
    
    Multipole moment analysis of the density matrix
      Molecular charge:                      0.000000
      Number of electrons:                   80.000000
        Center of electronic charge [Ang]: [  0.000128,  -0.005689,   0.001403]
      Total nuclear charge:                  80.000000
        Center of nuclear charge [Ang]:    [ -0.007497,  -0.024990,   0.008726]
      Dipole moment [D]:                     8.456130
        Cartesian components [D]:          [ -2.929915,  -7.416408,   2.814002]
      RMS size of the density [Ang]:         3.174674
        Cartesian components [Ang]:        [  2.358879,   1.486950,   1.517637]
    

  ----------------------------------------------------------------------------
                  Analysis of Unrelaxed Density Matrices
  ----------------------------------------------------------------------------

  Singlet 1 :
  -------------------------
    NOs
      Occupation of frontier NOs:
         0.0000   1.0000   1.0000   2.0000
      Number of electrons: 80.000000
      Number of unpaired electrons: n_u =  2.00000, n_u,nl =  2.00000
      NO participation ratio (PR_NO):  2.000000
    
    NDOs
      Leading detachment eigenvalues:
        -1.0000  -0.0000
      Leading attachment eigenvalues:
         1.0000   0.0000
      Number of detached / attached electrons: p_D =  1.0000, p_A =  1.0000
      Number of involved orbitals: PR_D =  1.000000, PR_A =  1.000000
    
    Mulliken Population Analysis (State/Difference DM)
    Atom      Charge (e)              h+              e-           Del q
    --------------------------------------------------------------------
     1 O       -0.648786        0.992203       -0.842404        0.149799
     2 H        0.312324        0.004006       -0.037442       -0.033436
     3 H        0.367863        0.003768       -0.036052       -0.032284
     4 O       -0.679875       -0.000000       -0.004288       -0.004288
     5 H        0.378938        0.000000       -0.000971       -0.000971
     6 H        0.300089       -0.000000       -0.001471       -0.001471
     7 O       -0.653342        0.000000       -0.009978       -0.009978
     8 H        0.337940        0.000000       -0.000423       -0.000423
     9 H        0.338138        0.000000       -0.000695       -0.000695
    10 O       -0.733168       -0.000000       -0.002507       -0.002507
    11 H        0.367433       -0.000000       -0.000458       -0.000458
    12 H        0.364734       -0.000000       -0.000338       -0.000338
    13 O       -0.669681        0.000000       -0.013321       -0.013321
    14 H        0.306699       -0.000000       -0.000389       -0.000389
    15 H        0.347677        0.000014       -0.008007       -0.007993
    16 O       -0.634283        0.000001       -0.003321       -0.003320
    17 H        0.369733        0.000001       -0.000937       -0.000936
    18 H        0.253817        0.000000       -0.001486       -0.001486
    19 O       -0.598409       -0.000000       -0.000382       -0.000382
    20 H        0.287222       -0.000000       -0.000075       -0.000075
    21 H        0.305305        0.000000       -0.000055       -0.000055
    22 O       -0.691808        0.000005       -0.023564       -0.023559
    23 H        0.292564        0.000001       -0.005471       -0.005470
    24 H        0.378874        0.000002       -0.005965       -0.005963
    --------------------------------------------------------------------
    Sum:       -0.000000        1.000000       -1.000000       -0.000000
    
    Multipole moment analysis of the density matrix
      Molecular charge:                      -0.000000
      Number of electrons:                   80.000000
        Center of electronic charge [Ang]: [ -0.001608,  -0.005833,  -0.000177]
      Total nuclear charge:                  80.000000
        Center of nuclear charge [Ang]:    [ -0.007496,  -0.024990,   0.008726]
      Dipole moment [D]:                     8.426931
        Cartesian components [D]:          [ -2.262840,  -7.361302,   3.421103]
      RMS size of the density [Ang]:         3.176165
        Cartesian components [Ang]:        [  2.359485,   1.488201,   1.518588]
    
    Exciton analysis of the difference density matrix
      <r_h> [Ang]:                  [  0.789454,   0.037216,   0.805433]
      <r_e> [Ang]:                  [  0.650572,   0.025743,   0.679038]
      |<r_e - r_h>| [Ang]:            0.188136
      Hole size [Ang]:                0.122938
        Cartesian components [Ang]: [  0.070904,   0.070914,   0.071117]
      Electron size [Ang]:            1.077579
        Cartesian components [Ang]: [  0.658741,   0.550971,   0.650898]

  Singlet 2 :
  -------------------------
    NOs
      Occupation of frontier NOs:
         0.0000   1.0000   1.0000   2.0000
      Number of electrons: 80.000000
      Number of unpaired electrons: n_u =  2.00000, n_u,nl =  2.00000
      NO participation ratio (PR_NO):  2.000000
    
    NDOs
      Leading detachment eigenvalues:
        -1.0000  -0.0000
      Leading attachment eigenvalues:
         1.0000   0.0000
      Number of detached / attached electrons: p_D =  1.0000, p_A =  1.0000
      Number of involved orbitals: PR_D =  1.000000, PR_A =  1.000000
    
    Mulliken Population Analysis (State/Difference DM)
    Atom      Charge (e)              h+              e-           Del q
    --------------------------------------------------------------------
     1 O       -0.565143        0.992203       -0.758761        0.233442
     2 H        0.294196        0.004006       -0.055571       -0.051565
     3 H        0.343204        0.003768       -0.060712       -0.056944
     4 O       -0.678576       -0.000000       -0.002989       -0.002989
     5 H        0.378422        0.000000       -0.001487       -0.001487
     6 H        0.299935       -0.000000       -0.001625       -0.001625
     7 O       -0.658776        0.000000       -0.015412       -0.015412
     8 H        0.337344        0.000000       -0.001019       -0.001019
     9 H        0.338267        0.000000       -0.000566       -0.000566
    10 O       -0.734527       -0.000000       -0.003866       -0.003866
    11 H        0.366081       -0.000000       -0.001810       -0.001811
    12 H        0.364036       -0.000000       -0.001036       -0.001036
    13 O       -0.669161        0.000000       -0.012801       -0.012800
    14 H        0.306176       -0.000000       -0.000912       -0.000912
    15 H        0.349142        0.000014       -0.006542       -0.006528
    16 O       -0.651665        0.000001       -0.020703       -0.020702
    17 H        0.364931        0.000001       -0.005739       -0.005738
    18 H        0.254820        0.000000       -0.000483       -0.000483
    19 O       -0.598812       -0.000000       -0.000784       -0.000785
    20 H        0.287164       -0.000000       -0.000133       -0.000133
    21 H        0.305310        0.000000       -0.000051       -0.000051
    22 O       -0.708756        0.000005       -0.040513       -0.040508
    23 H        0.295302        0.000001       -0.002733       -0.002733
    24 H        0.381087        0.000002       -0.003752       -0.003751
    --------------------------------------------------------------------
    Sum:        0.000000        1.000000       -1.000000        0.000000
    
    Multipole moment analysis of the density matrix
      Molecular charge:                      0.000000
      Number of electrons:                   80.000000
        Center of electronic charge [Ang]: [ -0.001509,  -0.005760,  -0.000294]
      Total nuclear charge:                  80.000000
        Center of nuclear charge [Ang]:    [ -0.007497,  -0.024990,   0.008726]
      Dipole moment [D]:                     8.479741
        Cartesian components [D]:          [ -2.300873,  -7.389141,   3.465917]
      RMS size of the density [Ang]:         3.176970
        Cartesian components [Ang]:        [  2.360047,   1.488579,   1.519030]
    
    Exciton analysis of the difference density matrix
      <r_h> [Ang]:                  [  0.789454,   0.037216,   0.805433]
      <r_e> [Ang]:                  [  0.658491,   0.031539,   0.669708]
      |<r_e - r_h>| [Ang]:            0.188692
      Hole size [Ang]:                0.122938
        Cartesian components [Ang]: [  0.070904,   0.070914,   0.071117]
      Electron size [Ang]:            1.253975
        Cartesian components [Ang]: [  0.797367,   0.627050,   0.737203]

  Singlet 3 :
  -------------------------
    NOs
      Occupation of frontier NOs:
         0.0000   1.0000   1.0000   2.0000
      Number of electrons: 80.000000
      Number of unpaired electrons: n_u =  2.00000, n_u,nl =  2.00000
      NO participation ratio (PR_NO):  2.000000
    
    NDOs
      Leading detachment eigenvalues:
        -1.0000  -0.0000
      Leading attachment eigenvalues:
         1.0000   0.0000
      Number of detached / attached electrons: p_D =  1.0000, p_A =  1.0000
      Number of involved orbitals: PR_D =  1.000000, PR_A =  1.000000
    
    Mulliken Population Analysis (State/Difference DM)
    Atom      Charge (e)              h+              e-           Del q
    --------------------------------------------------------------------
     1 O       -0.531684        0.992203       -0.725302        0.266901
     2 H        0.276396        0.004006       -0.073370       -0.069364
     3 H        0.301294        0.003768       -0.102622       -0.098854
     4 O       -0.676916       -0.000000       -0.001329       -0.001329
     5 H        0.379559        0.000000       -0.000350       -0.000349
     6 H        0.300887       -0.000000       -0.000673       -0.000673
     7 O       -0.650303        0.000000       -0.006939       -0.006938
     8 H        0.336385        0.000000       -0.001978       -0.001978
     9 H        0.335794        0.000000       -0.003038       -0.003038
    10 O       -0.734307       -0.000000       -0.003646       -0.003646
    11 H        0.366609       -0.000000       -0.001282       -0.001282
    12 H        0.364239       -0.000000       -0.000833       -0.000833
    13 O       -0.664438        0.000000       -0.008078       -0.008077
    14 H        0.305347       -0.000000       -0.001741       -0.001741
    15 H        0.351388        0.000014       -0.004296       -0.004282
    16 O       -0.644252        0.000001       -0.013290       -0.013290
    17 H        0.366855        0.000001       -0.003815       -0.003814
    18 H        0.254337        0.000000       -0.000967       -0.000967
    19 O       -0.598714       -0.000000       -0.000686       -0.000686
    20 H        0.287135       -0.000000       -0.000163       -0.000163
    21 H        0.305239        0.000000       -0.000121       -0.000121
    22 O       -0.706812        0.000005       -0.038569       -0.038564
    23 H        0.293793        0.000001       -0.004242       -0.004242
    24 H        0.382169        0.000002       -0.002671       -0.002669
    --------------------------------------------------------------------
    Sum:        0.000000        1.000000       -1.000000        0.000000
    
    Multipole moment analysis of the density matrix
      Molecular charge:                      0.000000
      Number of electrons:                   80.000000
        Center of electronic charge [Ang]: [ -0.001474,  -0.005843,  -0.001001]
      Total nuclear charge:                  80.000000
        Center of nuclear charge [Ang]:    [ -0.007497,  -0.024990,   0.008726]
      Dipole moment [D]:                     8.570690
        Cartesian components [D]:          [ -2.313998,  -7.357449,   3.737656]
      RMS size of the density [Ang]:         3.176360
        Cartesian components [Ang]:        [  2.359656,   1.488327,   1.518608]
    
    Exciton analysis of the difference density matrix
      <r_h> [Ang]:                  [  0.789454,   0.037216,   0.805433]
      <r_e> [Ang]:                  [  0.661223,   0.024941,   0.613134]
      |<r_e - r_h>| [Ang]:            0.231458
      Hole size [Ang]:                0.122938
        Cartesian components [Ang]: [  0.070904,   0.070914,   0.071117]
      Electron size [Ang]:            1.153959
        Cartesian components [Ang]: [  0.696001,   0.577556,   0.716681]

  Singlet 4 :
  -------------------------
    NOs
      Occupation of frontier NOs:
         0.0000   1.0000   1.0000   2.0000
      Number of electrons: 80.000000
      Number of unpaired electrons: n_u =  2.00000, n_u,nl =  2.00000
      NO participation ratio (PR_NO):  2.000000
    
    NDOs
      Leading detachment eigenvalues:
        -1.0000  -0.0000
      Leading attachment eigenvalues:
         1.0000   0.0000
      Number of detached / attached electrons: p_D =  1.0000, p_A =  1.0000
      Number of involved orbitals: PR_D =  1.000000, PR_A =  1.000000
    
    Mulliken Population Analysis (State/Difference DM)
    Atom      Charge (e)              h+              e-           Del q
    --------------------------------------------------------------------
     1 O        0.191233        0.992203       -0.002385        0.989818
     2 H        0.348768        0.004006       -0.000999        0.003007
     3 H        0.402931        0.003768       -0.000984        0.002783
     4 O       -0.683207       -0.000000       -0.007621       -0.007621
     5 H        0.379411        0.000000       -0.000498       -0.000498
     6 H        0.301309       -0.000000       -0.000251       -0.000251
     7 O       -0.665195        0.000000       -0.021831       -0.021830
     8 H        0.337806        0.000000       -0.000557       -0.000556
     9 H        0.337469        0.000000       -0.001363       -0.001363
    10 O       -0.811184       -0.000000       -0.080523       -0.080523
    11 H        0.355947       -0.000000       -0.011945       -0.011945
    12 H        0.318128       -0.000000       -0.046944       -0.046945
    13 O       -1.389689        0.000000       -0.733328       -0.733328
    14 H        0.268677       -0.000000       -0.038411       -0.038411
    15 H        0.310462        0.000014       -0.045221       -0.045208
    16 O       -0.631155        0.000001       -0.000193       -0.000192
    17 H        0.370650        0.000001       -0.000020       -0.000019
    18 H        0.255287        0.000000       -0.000017       -0.000016
    19 O       -0.598465       -0.000000       -0.000438       -0.000438
    20 H        0.287094       -0.000000       -0.000203       -0.000203
    21 H        0.305237        0.000000       -0.000124       -0.000124
    22 O       -0.672695        0.000005       -0.004451       -0.004446
    23 H        0.297467        0.000001       -0.000568       -0.000567
    24 H        0.383713        0.000002       -0.001126       -0.001124
    --------------------------------------------------------------------
    Sum:       -0.000000        1.000000       -1.000000       -0.000000
    
    Multipole moment analysis of the density matrix
      Molecular charge:                      -0.000000
      Number of electrons:                   80.000000
        Center of electronic charge [Ang]: [ -0.026282,   0.014312,   0.013286]
      Total nuclear charge:                  80.000000
        Center of nuclear charge [Ang]:    [ -0.007496,  -0.024990,   0.008726]
      Dipole moment [D]:                     16.830054
        Cartesian components [D]:          [  7.218571, -15.102103,  -1.751982]
      RMS size of the density [Ang]:         3.190943
        Cartesian components [Ang]:        [  2.362795,   1.500995,   1.531774]
    
    Exciton analysis of the difference density matrix
      <r_h> [Ang]:                  [  0.789454,   0.037216,   0.805433]
      <r_e> [Ang]:                  [ -1.323404,   1.637334,   1.756045]
      |<r_e - r_h>| [Ang]:            2.815707
      Hole size [Ang]:                0.122938
        Cartesian components [Ang]: [  0.070904,   0.070914,   0.071117]
      Electron size [Ang]:            1.463131
        Cartesian components [Ang]: [  0.641321,   0.834581,   1.016334]

  Singlet 5 :
  -------------------------
    NOs
      Occupation of frontier NOs:
         0.0000   1.0000   1.0000   2.0000
      Number of electrons: 80.000000
      Number of unpaired electrons: n_u =  2.00000, n_u,nl =  2.00000
      NO participation ratio (PR_NO):  2.000000
    
    NDOs
      Leading detachment eigenvalues:
        -1.0000  -0.0000
      Leading attachment eigenvalues:
         1.0000   0.0000
      Number of detached / attached electrons: p_D =  1.0000, p_A =  1.0000
      Number of involved orbitals: PR_D =  1.000000, PR_A =  1.000000
    
    Mulliken Population Analysis (State/Difference DM)
    Atom      Charge (e)              h+              e-           Del q
    --------------------------------------------------------------------
     1 O        0.193134        0.992203       -0.000484        0.991719
     2 H        0.349630        0.004006       -0.000136        0.003870
     3 H        0.403825        0.003768       -0.000090        0.003677
     4 O       -0.675743       -0.000000       -0.000156       -0.000156
     5 H        0.379903        0.000000       -0.000006       -0.000006
     6 H        0.301555       -0.000000       -0.000005       -0.000005
     7 O       -0.643468        0.000000       -0.000104       -0.000103
     8 H        0.338334        0.000000       -0.000028       -0.000028
     9 H        0.338820        0.000000       -0.000013       -0.000013
    10 O       -0.731499       -0.000000       -0.000838       -0.000838
    11 H        0.367815       -0.000000       -0.000077       -0.000077
    12 H        0.364987       -0.000000       -0.000085       -0.000085
    13 O       -0.657103        0.000000       -0.000743       -0.000742
    14 H        0.307040       -0.000000       -0.000048       -0.000048
    15 H        0.355597        0.000014       -0.000087       -0.000073
    16 O       -0.725665        0.000001       -0.094702       -0.094702
    17 H        0.369598        0.000001       -0.001072       -0.001071
    18 H        0.254833        0.000000       -0.000471       -0.000471
    19 O       -1.092997       -0.000000       -0.494969       -0.494969
    20 H        0.084806       -0.000000       -0.202491       -0.202491
    21 H        0.111401        0.000000       -0.193959       -0.193959
    22 O       -0.674694        0.000005       -0.006450       -0.006445
    23 H        0.296076        0.000001       -0.001959       -0.001959
    24 H        0.383814        0.000002       -0.001025       -0.001023
    --------------------------------------------------------------------
    Sum:       -0.000000        1.000000       -1.000000       -0.000000
    
    Multipole moment analysis of the density matrix
      Molecular charge:                      -0.000000
      Number of electrons:                   80.000000
        Center of electronic charge [Ang]: [  0.031940,   0.001473,  -0.031316]
      Total nuclear charge:                  80.000000
        Center of nuclear charge [Ang]:    [ -0.007496,  -0.024990,   0.008726]
      Dipole moment [D]:                     23.870025
        Cartesian components [D]:          [-15.153686, -10.168382,  15.386615]
      RMS size of the density [Ang]:         3.205061
        Cartesian components [Ang]:        [  2.387545,   1.490142,   1.533468]
    
    Exciton analysis of the difference density matrix
      <r_h> [Ang]:                  [  0.789454,   0.037216,   0.805433]
      <r_e> [Ang]:                  [  3.334374,   0.610162,  -1.812113]
      |<r_e - r_h>| [Ang]:            3.695461
      Hole size [Ang]:                0.122938
        Cartesian components [Ang]: [  0.070904,   0.070914,   0.071117]
      Electron size [Ang]:            1.476790
        Cartesian components [Ang]: [  0.690374,   0.625955,   1.145633]

  Singlet 6 :
  -------------------------
    NOs
      Occupation of frontier NOs:
         0.0000   1.0000   1.0000   2.0000
      Number of electrons: 80.000000
      Number of unpaired electrons: n_u =  2.00000, n_u,nl =  2.00000
      NO participation ratio (PR_NO):  2.000000
    
    NDOs
      Leading detachment eigenvalues:
        -1.0000  -0.0000
      Leading attachment eigenvalues:
         1.0000   0.0000
      Number of detached / attached electrons: p_D =  1.0000, p_A =  1.0000
      Number of involved orbitals: PR_D =  1.000000, PR_A =  1.000000
    
    Mulliken Population Analysis (State/Difference DM)
    Atom      Charge (e)              h+              e-           Del q
    --------------------------------------------------------------------
     1 O        0.181888        0.992203       -0.011730        0.980473
     2 H        0.348844        0.004006       -0.000923        0.003083
     3 H        0.398789        0.003768       -0.005126       -0.001359
     4 O       -0.725542       -0.000000       -0.049955       -0.049955
     5 H        0.376554        0.000000       -0.003355       -0.003355
     6 H        0.299433       -0.000000       -0.002127       -0.002127
     7 O       -0.670662        0.000000       -0.027298       -0.027298
     8 H        0.337417        0.000000       -0.000945       -0.000945
     9 H        0.338098        0.000000       -0.000734       -0.000734
    10 O       -1.344039       -0.000000       -0.613378       -0.613378
    11 H        0.348972       -0.000000       -0.018919       -0.018919
    12 H        0.348167       -0.000000       -0.016905       -0.016906
    13 O       -0.698055        0.000000       -0.041695       -0.041695
    14 H        0.303468       -0.000000       -0.003621       -0.003621
    15 H        0.352066        0.000014       -0.003617       -0.003604
    16 O       -0.635303        0.000001       -0.004341       -0.004340
    17 H        0.370549        0.000001       -0.000121       -0.000120
    18 H        0.255119        0.000000       -0.000185       -0.000185
    19 O       -0.598521       -0.000000       -0.000493       -0.000493
    20 H        0.287274       -0.000000       -0.000023       -0.000023
    21 H        0.305307        0.000000       -0.000054       -0.000053
    22 O       -0.847718        0.000005       -0.179474       -0.179469
    23 H        0.293403        0.000001       -0.004631       -0.004631
    24 H        0.374491        0.000002       -0.010348       -0.010346
    --------------------------------------------------------------------
    Sum:       -0.000000        1.000000       -1.000000       -0.000000
    
    Multipole moment analysis of the density matrix
      Molecular charge:                      -0.000000
      Number of electrons:                   80.000000
        Center of electronic charge [Ang]: [ -0.032831,   0.005982,  -0.015271]
      Total nuclear charge:                  80.000000
        Center of nuclear charge [Ang]:    [ -0.007496,  -0.024990,   0.008726]
      Dipole moment [D]:                     17.928493
        Cartesian components [D]:          [  9.735038, -11.901025,   9.220926]
      RMS size of the density [Ang]:         3.187419
        Cartesian components [Ang]:        [  2.369744,   1.494806,   1.519706]
    
    Exciton analysis of the difference density matrix
      <r_h> [Ang]:                  [  0.789454,   0.037216,   0.805433]
      <r_e> [Ang]:                  [ -1.847318,   0.970888,  -0.528452]
      |<r_e - r_h>| [Ang]:            3.098961
      Hole size [Ang]:                0.122938
        Cartesian components [Ang]: [  0.070904,   0.070914,   0.071117]
      Electron size [Ang]:            1.801646
        Cartesian components [Ang]: [  1.188242,   0.968541,   0.946540]

  Singlet 7 :
  -------------------------
    NOs
      Occupation of frontier NOs:
         0.0000   1.0000   1.0000   2.0000
      Number of electrons: 80.000000
      Number of unpaired electrons: n_u =  2.00000, n_u,nl =  2.00000
      NO participation ratio (PR_NO):  2.000000
    
    NDOs
      Leading detachment eigenvalues:
        -1.0000  -0.0000
      Leading attachment eigenvalues:
         1.0000   0.0000
      Number of detached / attached electrons: p_D =  1.0000, p_A =  1.0000
      Number of involved orbitals: PR_D =  1.000000, PR_A =  1.000000
    
    Mulliken Population Analysis (State/Difference DM)
    Atom      Charge (e)              h+              e-           Del q
    --------------------------------------------------------------------
     1 O        0.193043        0.992203       -0.000575        0.991628
     2 H        0.349531        0.004006       -0.000236        0.003770
     3 H        0.403761        0.003768       -0.000155        0.003613
     4 O       -0.675825       -0.000000       -0.000239       -0.000239
     5 H        0.379903        0.000000       -0.000006       -0.000006
     6 H        0.301553       -0.000000       -0.000007       -0.000007
     7 O       -0.643518        0.000000       -0.000154       -0.000154
     8 H        0.338348        0.000000       -0.000015       -0.000015
     9 H        0.338824        0.000000       -0.000009       -0.000009
    10 O       -0.731616       -0.000000       -0.000955       -0.000955
    11 H        0.367874       -0.000000       -0.000017       -0.000017
    12 H        0.365047       -0.000000       -0.000025       -0.000025
    13 O       -0.656606        0.000000       -0.000245       -0.000245
    14 H        0.307047       -0.000000       -0.000041       -0.000042
    15 H        0.355656        0.000014       -0.000027       -0.000014
    16 O       -1.529889        0.000001       -0.898927       -0.898926
    17 H        0.361915        0.000001       -0.008756       -0.008755
    18 H        0.253099        0.000000       -0.002204       -0.002204
    19 O       -0.645771       -0.000000       -0.047744       -0.047744
    20 H        0.267131       -0.000000       -0.020166       -0.020166
    21 H        0.287651        0.000000       -0.017710       -0.017710
    22 O       -0.669578        0.000005       -0.001334       -0.001329
    23 H        0.297937        0.000001       -0.000098       -0.000097
    24 H        0.384484        0.000002       -0.000355       -0.000353
    --------------------------------------------------------------------
    Sum:        0.000000        1.000000       -1.000000        0.000000
    
    Multipole moment analysis of the density matrix
      Molecular charge:                      0.000000
      Number of electrons:                   80.000000
        Center of electronic charge [Ang]: [  0.035786,  -0.015743,   0.005835]
      Total nuclear charge:                  80.000000
        Center of nuclear charge [Ang]:    [ -0.007497,  -0.024990,   0.008726]
      Dipole moment [D]:                     17.043251
        Cartesian components [D]:          [-16.631693,  -3.553206,   1.110819]
      RMS size of the density [Ang]:         3.205075
        Cartesian components [Ang]:        [  2.392442,   1.490675,   1.525325]
    
    Exciton analysis of the difference density matrix
      <r_h> [Ang]:                  [  0.789454,   0.037216,   0.805433]
      <r_e> [Ang]:                  [  3.642086,  -0.767081,   1.160026]
      |<r_e - r_h>| [Ang]:            2.984986
      Hole size [Ang]:                0.122938
        Cartesian components [Ang]: [  0.070904,   0.070914,   0.071117]
      Electron size [Ang]:            1.314596
        Cartesian components [Ang]: [  0.472679,   0.567932,   1.087286]

  Singlet 8 :
  -------------------------
    NOs
      Occupation of frontier NOs:
         0.0000   1.0000   1.0000   2.0000
      Number of electrons: 80.000000
      Number of unpaired electrons: n_u =  2.00000, n_u,nl =  2.00000
[...]
1234  O 7   d 2     -0.00003   0.00073   0.00072
1235  O 7   d 3      0.00014   0.00084   0.00087
1236  O 7   d 4     -0.00020  -0.00064  -0.00100
1237  O 7   d 5     -0.00024  -0.00065  -0.00050
1238  O 7   d 1      0.00393   0.00642  -0.00945
1239  O 7   d 2     -0.00014  -0.00355  -0.00516
1240  O 7   d 3     -0.00147  -0.00470  -0.00078
1241  O 7   d 4     -0.00047   0.00028   0.00668
1242  O 7   d 5      0.00011   0.00228  -0.00211
1243  O 7   d 1      0.00014   0.00940  -0.02786
1244  O 7   d 2     -0.00833  -0.01246  -0.01008
1245  O 7   d 3      0.00113  -0.00245  -0.00678
1246  O 7   d 4      0.00578   0.00209   0.01750
1247  O 7   d 5     -0.00394   0.00936  -0.00547
1248  O 7   f 1      0.00005   0.00010   0.00001
1249  O 7   f 2     -0.00001   0.00000   0.00012
1250  O 7   f 3     -0.00005  -0.00006   0.00006
1251  O 7   f 4     -0.00003   0.00001  -0.00005
1252  O 7   f 5     -0.00004  -0.00007   0.00002
1253  O 7   f 6     -0.00003  -0.00004   0.00007
1254  O 7   f 7     -0.00001  -0.00003   0.00015
1255  O 7   f 1     -0.00044  -0.00076   0.00030
1256  O 7   f 2      0.00018   0.00011  -0.00103
1257  O 7   f 3      0.00036   0.00049  -0.00055
1258  O 7   f 4      0.00022   0.00001  -0.00013
1259  O 7   f 5      0.00042   0.00058  -0.00051
1260  O 7   f 6     -0.00000   0.00006  -0.00020
1261  O 7   f 7      0.00007   0.00018  -0.00075
1262  O 7   f 1     -0.00107  -0.00694  -0.00609
1263  O 7   f 2     -0.00186  -0.00141  -0.01133
1264  O 7   f 3     -0.00087  -0.00021   0.00120
1265  O 7   f 4     -0.00085  -0.00375  -0.00340
1266  O 7   f 5      0.00183   0.00558   0.00158
1267  O 7   f 6     -0.00092   0.00185  -0.00291
1268  O 7   f 7      0.00058   0.00072  -0.00726
1269  O 7   g 1      0.00005   0.00005  -0.00018
1270  O 7   g 2      0.00001   0.00006  -0.00009
1271  O 7   g 3      0.00000   0.00002   0.00007
1272  O 7   g 4     -0.00000  -0.00001  -0.00001
1273  O 7   g 5      0.00006   0.00006  -0.00009
1274  O 7   g 6      0.00002  -0.00002   0.00003
1275  O 7   g 7     -0.00001  -0.00001   0.00007
1276  O 7   g 8      0.00001   0.00000   0.00011
1277  O 7   g 9     -0.00002  -0.00000   0.00008
1278  O 7   g 1      0.00013   0.00036   0.00080
1279  O 7   g 2     -0.00000  -0.00083  -0.00027
1280  O 7   g 3     -0.00049  -0.00103  -0.00077
1281  O 7   g 4     -0.00003   0.00021   0.00053
1282  O 7   g 5     -0.00014  -0.00006  -0.00008
1283  O 7   g 6     -0.00006   0.00029  -0.00104
1284  O 7   g 7     -0.00007  -0.00010  -0.00041
1285  O 7   g 8     -0.00011  -0.00013  -0.00172
1286  O 7   g 9     -0.00028  -0.00082  -0.00132
1287  O 7   h 1      0.00000  -0.00001   0.00008
1288  O 7   h 2     -0.00000  -0.00000  -0.00001
1289  O 7   h 3      0.00002   0.00002  -0.00004
1290  O 7   h 4     -0.00001  -0.00004   0.00016
1291  O 7   h 5     -0.00000  -0.00001   0.00009
1292  O 7   h 6     -0.00003   0.00001   0.00000
1293  O 7   h 7     -0.00004  -0.00009  -0.00014
1294  O 7   h 8      0.00001  -0.00002   0.00003
1295  O 7   h 9     -0.00003  -0.00004  -0.00011
1296  O 7   h10     -0.00000  -0.00006  -0.00023
1297  O 7   h11      0.00007   0.00011  -0.00010
1298  H 13  s       -0.00095  -0.00142  -0.00270
1299  H 13  s       -0.00286  -0.00389   0.00042
1300  H 13  s       -0.02076  -0.04972  -0.13318
1301  H 13  s       -0.02262   0.02082   0.02244
1302  H 13  s       -0.01815  -0.05447  -0.58208
1303  H 13  px      -0.00007  -0.00027  -0.00114
1304  H 13  py      -0.00004   0.00012   0.00107
1305  H 13  pz       0.00005  -0.00012  -0.00100
1306  H 13  px      -0.00001   0.00049   0.00109
1307  H 13  py      -0.00047  -0.00099  -0.00231
1308  H 13  pz       0.00018   0.00064   0.00149
1309  H 13  px       0.00204   0.00460   0.01497
1310  H 13  py      -0.00101  -0.00485   0.00717
1311  H 13  pz      -0.00053   0.00054   0.00627
1312  H 13  px       0.01150   0.00232  -0.00183
1313  H 13  py      -0.00468  -0.00541   0.01147
1314  H 13  pz      -0.00083  -0.01156   0.00866
1315  H 13  d 1      0.00001   0.00003  -0.00017
1316  H 13  d 2      0.00013   0.00012  -0.00006
1317  H 13  d 3     -0.00002   0.00002   0.00004
1318  H 13  d 4     -0.00002   0.00002   0.00030
1319  H 13  d 5     -0.00004  -0.00005   0.00042
1320  H 13  d 1      0.00010   0.00082   0.00234
1321  H 13  d 2     -0.00046   0.00006   0.00130
1322  H 13  d 3      0.00022   0.00032   0.00012
1323  H 13  d 4      0.00018  -0.00056  -0.00396
1324  H 13  d 5      0.00030   0.00030  -0.00374
1325  H 13  d 1     -0.00129  -0.00100  -0.00752
1326  H 13  d 2     -0.00193  -0.00288  -0.00542
1327  H 13  d 3      0.00264   0.00444  -0.00401
1328  H 13  d 4      0.00242   0.00652  -0.00196
1329  H 13  d 5     -0.00283  -0.00065  -0.00436
1330  H 13  f 1     -0.00003  -0.00011  -0.00028
1331  H 13  f 2     -0.00007  -0.00022  -0.00041
1332  H 13  f 3     -0.00002  -0.00004  -0.00005
1333  H 13  f 4     -0.00003  -0.00015  -0.00037
1334  H 13  f 5      0.00003   0.00005  -0.00001
1335  H 13  f 6      0.00000   0.00008   0.00023
1336  H 13  f 7     -0.00006  -0.00006   0.00012
1337  H 13  f 1      0.00026   0.00040  -0.00018
1338  H 13  f 2      0.00082   0.00145   0.00113
1339  H 13  f 3      0.00041   0.00076  -0.00017
1340  H 13  f 4      0.00022   0.00085   0.00096
1341  H 13  f 5     -0.00078  -0.00130   0.00118
1342  H 13  f 6     -0.00017  -0.00071   0.00192
1343  H 13  f 7      0.00053   0.00008   0.00160
1344  H 13  g 1      0.00001  -0.00000   0.00013
1345  H 13  g 2     -0.00003  -0.00005   0.00008
1346  H 13  g 3     -0.00004  -0.00009   0.00004
1347  H 13  g 4     -0.00001  -0.00000   0.00004
1348  H 13  g 5     -0.00003  -0.00008   0.00007
1349  H 13  g 6      0.00003   0.00002   0.00000
1350  H 13  g 7      0.00003   0.00005  -0.00011
1351  H 13  g 8     -0.00001   0.00001  -0.00020
1352  H 13  g 9     -0.00003  -0.00000  -0.00010
1353  H 14  s       -0.00160  -0.00240  -0.00077
1354  H 14  s        0.00077   0.00087  -0.01086
1355  H 14  s       -0.03978  -0.09981   0.01884
1356  H 14  s       -0.01644  -0.02502   0.07789
1357  H 14  s       -0.08090  -0.22841   0.13400
1358  H 14  px       0.00047   0.00071   0.00006
1359  H 14  py       0.00037   0.00059  -0.00010
1360  H 14  pz      -0.00010  -0.00006   0.00014
1361  H 14  px       0.00049   0.00010  -0.00120
1362  H 14  py      -0.00022  -0.00072  -0.00076
1363  H 14  pz       0.00057   0.00074  -0.00069
1364  H 14  px      -0.00525  -0.01690   0.01495
1365  H 14  py      -0.00114  -0.00912   0.00339
1366  H 14  pz      -0.00082  -0.00407   0.00886
1367  H 14  px      -0.00269  -0.01315   0.03608
1368  H 14  py      -0.00069  -0.01917   0.03873
1369  H 14  pz       0.00474  -0.00382  -0.00495
1370  H 14  d 1      0.00018   0.00025  -0.00033
1371  H 14  d 2     -0.00012  -0.00006   0.00008
1372  H 14  d 3     -0.00014  -0.00004   0.00017
1373  H 14  d 4     -0.00006  -0.00010  -0.00004
1374  H 14  d 5      0.00007   0.00014  -0.00016
1375  H 14  d 1     -0.00171  -0.00360   0.00178
1376  H 14  d 2      0.00054   0.00006   0.00026
1377  H 14  d 3      0.00121   0.00176  -0.00135
1378  H 14  d 4      0.00036   0.00022   0.00114
1379  H 14  d 5     -0.00083  -0.00162   0.00204
1380  H 14  d 1     -0.00216  -0.00421   0.01498
1381  H 14  d 2     -0.00043  -0.00392   0.00616
1382  H 14  d 3      0.00151   0.00378  -0.00841
1383  H 14  d 4     -0.00043  -0.00673   0.00429
1384  H 14  d 5     -0.00318  -0.00107   0.00712
1385  H 14  f 1     -0.00013  -0.00039  -0.00015
1386  H 14  f 2      0.00002   0.00006  -0.00001
1387  H 14  f 3      0.00007   0.00018   0.00003
1388  H 14  f 4      0.00005   0.00001  -0.00009
1389  H 14  f 5      0.00011   0.00031  -0.00003
1390  H 14  f 6      0.00001  -0.00003   0.00011
1391  H 14  f 7     -0.00000  -0.00001   0.00014
1392  H 14  f 1     -0.00094  -0.00060   0.00433
1393  H 14  f 2      0.00020  -0.00109   0.00159
1394  H 14  f 3      0.00022   0.00023  -0.00150
1395  H 14  f 4     -0.00036   0.00076  -0.00060
1396  H 14  f 5      0.00044   0.00007  -0.00228
1397  H 14  f 6      0.00003  -0.00014   0.00020
1398  H 14  f 7     -0.00006   0.00040  -0.00046
1399  H 14  g 1     -0.00008  -0.00008   0.00021
1400  H 14  g 2      0.00003  -0.00007   0.00016
1401  H 14  g 3      0.00005   0.00007  -0.00018
1402  H 14  g 4     -0.00001   0.00005  -0.00004
1403  H 14  g 5     -0.00004  -0.00006   0.00013
1404  H 14  g 6     -0.00001   0.00007  -0.00009
1405  H 14  g 7      0.00002   0.00002  -0.00009
1406  H 14  g 8      0.00000   0.00003  -0.00001
1407  H 14  g 9      0.00004   0.00007  -0.00015
1408  O 8   s       -0.00082  -0.00052   0.00038
1409  O 8   s        0.04105   0.02518  -0.03052
1410  O 8   s        0.00128   0.00027  -0.00140
1411  O 8   s        0.04901   0.04429  -0.04678
1412  O 8   s        0.04145  -0.06109   0.08110
1413  O 8   s        0.07653  -0.35832   0.20303
1414  O 8   px      -0.00717  -0.00136   0.00429
1415  O 8   py      -0.01695  -0.01807   0.01877
1416  O 8   pz      -0.00459  -0.01427   0.00853
1417  O 8   px      -0.01303  -0.00428   0.00851
1418  O 8   py      -0.02621  -0.03050   0.03194
1419  O 8   pz      -0.00582  -0.02237   0.01329
1420  O 8   px      -0.00562   0.00997  -0.00510
1421  O 8   py      -0.04812  -0.03844   0.03393
1422  O 8   pz      -0.02119  -0.03922   0.02231
1423  O 8   px       0.03482   0.08983  -0.05125
1424  O 8   py      -0.07291   0.01271  -0.00199
1425  O 8   pz      -0.05283  -0.03670   0.03070
1426  O 8   px       0.06992   0.19632  -0.13297
1427  O 8   py      -0.07971  -0.00737   0.03103
1428  O 8   pz      -0.15675  -0.16504   0.14137
1429  O 8   d 1     -0.00001  -0.00001   0.00001
1430  O 8   d 2     -0.00009  -0.00010   0.00006
1431  O 8   d 3      0.00003  -0.00002  -0.00003
1432  O 8   d 4     -0.00001   0.00002   0.00005
1433  O 8   d 5      0.00001  -0.00004  -0.00009
1434  O 8   d 1      0.00070   0.00065  -0.00061
1435  O 8   d 2     -0.00034   0.00046   0.00016
1436  O 8   d 3     -0.00035   0.00027   0.00055
1437  O 8   d 4      0.00034   0.00034  -0.00025
1438  O 8   d 5      0.00014   0.00001  -0.00013
1439  O 8   d 1     -0.00151  -0.00210   0.00107
1440  O 8   d 2      0.00516  -0.00248   0.00373
1441  O 8   d 3      0.00111   0.00039  -0.00285
1442  O 8   d 4      0.00365   0.00612  -0.00510
1443  O 8   d 5     -0.00869  -0.00551   0.00141
1444  O 8   d 1      0.00139  -0.01012  -0.00506
1445  O 8   d 2      0.03003   0.00624  -0.01442
1446  O 8   d 3     -0.00629   0.00133   0.00199
1447  O 8   d 4      0.01888   0.03833  -0.02942
1448  O 8   d 5     -0.03612  -0.03066   0.01844
1449  O 8   f 1     -0.00013  -0.00009   0.00006
1450  O 8   f 2      0.00009   0.00013  -0.00011
1451  O 8   f 3      0.00003  -0.00002   0.00000
1452  O 8   f 4     -0.00003   0.00001  -0.00003
1453  O 8   f 5      0.00001   0.00004  -0.00004
1454  O 8   f 6     -0.00006   0.00002  -0.00013
1455  O 8   f 7      0.00000  -0.00001   0.00001
1456  O 8   f 1      0.00093   0.00048   0.00000
1457  O 8   f 2     -0.00047  -0.00055   0.00040
1458  O 8   f 3     -0.00024   0.00002  -0.00008
1459  O 8   f 4      0.00064   0.00041  -0.00007
1460  O 8   f 5     -0.00001  -0.00008   0.00014
1461  O 8   f 6      0.00060  -0.00041   0.00121
1462  O 8   f 7      0.00024   0.00040  -0.00037
1463  O 8   f 1      0.00782   0.00722  -0.00409
1464  O 8   f 2     -0.00482  -0.00609   0.00670
1465  O 8   f 3      0.00106   0.00327  -0.00055
1466  O 8   f 4      0.00482   0.00520  -0.00337
1467  O 8   f 5     -0.00109   0.00031  -0.00013
1468  O 8   f 6      0.00616  -0.00352  -0.00227
1469  O 8   f 7      0.00346   0.00561  -0.00502
1470  O 8   g 1      0.00008   0.00012  -0.00009
1471  O 8   g 2     -0.00008  -0.00010   0.00003
1472  O 8   g 3      0.00001  -0.00002  -0.00001
1473  O 8   g 4      0.00005   0.00008  -0.00009
1474  O 8   g 5      0.00001  -0.00001  -0.00003
1475  O 8   g 6      0.00001  -0.00001   0.00001
1476  O 8   g 7     -0.00005  -0.00002  -0.00001
1477  O 8   g 8      0.00009   0.00010  -0.00016
1478  O 8   g 9     -0.00001  -0.00002   0.00005
1479  O 8   g 1     -0.00103  -0.00144   0.00105
1480  O 8   g 2     -0.00038   0.00054  -0.00014
1481  O 8   g 3      0.00007   0.00028  -0.00010
1482  O 8   g 4     -0.00116  -0.00115   0.00084
1483  O 8   g 5     -0.00052   0.00012   0.00017
1484  O 8   g 6      0.00004  -0.00032   0.00006
1485  O 8   g 7     -0.00004   0.00002   0.00020
1486  O 8   g 8     -0.00106  -0.00055   0.00127
1487  O 8   g 9      0.00089   0.00034  -0.00046
1488  O 8   h 1     -0.00003   0.00002   0.00002
1489  O 8   h 2      0.00001  -0.00002  -0.00006
1490  O 8   h 3      0.00010   0.00007  -0.00011
1491  O 8   h 4      0.00002   0.00005  -0.00002
1492  O 8   h 5      0.00010   0.00006  -0.00007
1493  O 8   h 6     -0.00002  -0.00008   0.00003
1494  O 8   h 7      0.00009   0.00003  -0.00007
1495  O 8   h 8     -0.00019  -0.00014   0.00014
1496  O 8   h 9      0.00000   0.00008  -0.00005
1497  O 8   h10     -0.00005  -0.00011   0.00003
1498  O 8   h11     -0.00011  -0.00008   0.00011
1499  H 15  s       -0.00343  -0.00236   0.00391
1500  H 15  s       -0.00137  -0.00387   0.01141
1501  H 15  s       -0.13119  -0.03553   0.05226
1502  H 15  s       -0.02979   0.25545  -0.20959
1503  H 15  s       -0.56802  -0.74185   0.60142
1504  H 15  px       0.00009   0.00008  -0.00016
1505  H 15  py       0.00134   0.00139  -0.00134
1506  H 15  pz       0.00078   0.00103  -0.00077
1507  H 15  px      -0.00075  -0.00075   0.00108
1508  H 15  py      -0.00113  -0.00170   0.00207
1509  H 15  pz       0.00032  -0.00164   0.00087
1510  H 15  px       0.00587   0.00796  -0.01258
1511  H 15  py      -0.00630   0.02863  -0.02732
1512  H 15  pz      -0.01277   0.01151  -0.01235
1513  H 15  px       0.00638  -0.01399   0.00140
1514  H 15  py      -0.01186   0.07544  -0.08089
1515  H 15  pz      -0.00221   0.04719  -0.07651
1516  H 15  d 1     -0.00021  -0.00026   0.00017
1517  H 15  d 2      0.00039   0.00028  -0.00021
1518  H 15  d 3      0.00032   0.00031  -0.00023
1519  H 15  d 4      0.00009  -0.00009   0.00025
1520  H 15  d 5     -0.00029  -0.00018  -0.00017
1521  H 15  d 1      0.00119   0.00199  -0.00173
1522  H 15  d 2     -0.00394  -0.00097   0.00022
1523  H 15  d 3     -0.00162  -0.00213   0.00139
1524  H 15  d 4     -0.00015   0.00107  -0.00183
1525  H 15  d 5      0.00259  -0.00027   0.00154
1526  H 15  d 1      0.00242   0.00088  -0.00504
1527  H 15  d 2     -0.00027   0.01354  -0.02292
1528  H 15  d 3     -0.00040  -0.00314  -0.00257
1529  H 15  d 4      0.00413  -0.00081  -0.00042
1530  H 15  d 5     -0.00417  -0.01427   0.01186
1531  H 15  f 1      0.00018  -0.00003   0.00003
1532  H 15  f 2      0.00009   0.00022  -0.00023
1533  H 15  f 3     -0.00020  -0.00007   0.00018
1534  H 15  f 4      0.00020   0.00008  -0.00011
1535  H 15  f 5     -0.00000   0.00014  -0.00009
1536  H 15  f 6      0.00039   0.00005  -0.00003
1537  H 15  f 7      0.00002  -0.00003   0.00001
1538  H 15  f 1     -0.00018  -0.00139   0.00149
1539  H 15  f 2      0.00038  -0.00006  -0.00048
1540  H 15  f 3     -0.00086  -0.00104  -0.00161
1541  H 15  f 4     -0.00030  -0.00171   0.00201
1542  H 15  f 5      0.00017  -0.00059   0.00025
1543  H 15  f 6      0.00008  -0.00125   0.00269
1544  H 15  f 7     -0.00083  -0.00101   0.00148
1545  H 15  g 1     -0.00003  -0.00006   0.00009
1546  H 15  g 2      0.00008  -0.00005   0.00012
1547  H 15  g 3      0.00004   0.00002  -0.00003
1548  H 15  g 4     -0.00001  -0.00011   0.00006
1549  H 15  g 5      0.00007  -0.00000   0.00011
1550  H 15  g 6      0.00001  -0.00001   0.00001
1551  H 15  g 7      0.00011   0.00007   0.00010
1552  H 15  g 8     -0.00004  -0.00005   0.00011
1553  H 15  g 9     -0.00000   0.00011  -0.00008
1554  H 16  s       -0.00229  -0.00190   0.00054
1555  H 16  s       -0.00892  -0.01135   0.00741
1556  H 16  s        0.02341   0.09557  -0.06254
1557  H 16  s        0.26108   0.32537  -0.30148
1558  H 16  s       -0.00328   0.32240  -0.11884
1559  H 16  px       0.00102   0.00019  -0.00055
1560  H 16  py       0.00008  -0.00013   0.00010
1561  H 16  pz      -0.00036   0.00011   0.00004
1562  H 16  px      -0.00306  -0.00156   0.00277
1563  H 16  py      -0.00062   0.00037   0.00015
1564  H 16  pz       0.00061  -0.00091   0.00054
1565  H 16  px       0.03769   0.04272  -0.03999
1566  H 16  py      -0.00401  -0.01068   0.00667
1567  H 16  pz      -0.01639  -0.01204   0.01263
1568  H 16  px       0.07233   0.11242  -0.08861
1569  H 16  py      -0.00084   0.00948  -0.01932
1570  H 16  pz      -0.01445  -0.02824   0.01288
1571  H 16  d 1      0.00005   0.00007   0.00013
1572  H 16  d 2     -0.00003   0.00001  -0.00005
1573  H 16  d 3     -0.00020   0.00004  -0.00005
1574  H 16  d 4     -0.00016   0.00008  -0.00006
1575  H 16  d 5     -0.00010  -0.00005   0.00014
1576  H 16  d 1     -0.00161  -0.00215   0.00099
1577  H 16  d 2      0.00060   0.00075  -0.00044
1578  H 16  d 3      0.00076  -0.00049   0.00042
1579  H 16  d 4     -0.00091  -0.00252   0.00222
1580  H 16  d 5      0.00164   0.00220  -0.00218
1581  H 16  d 1     -0.00639  -0.00725   0.00500
1582  H 16  d 2     -0.00042  -0.00016   0.00338
1583  H 16  d 3     -0.00746  -0.00865   0.00914
1584  H 16  d 4     -0.01616  -0.00810   0.01200
1585  H 16  d 5      0.01902   0.02185  -0.02330
1586  H 16  f 1     -0.00007  -0.00020   0.00008
1587  H 16  f 2      0.00015   0.00022  -0.00030
1588  H 16  f 3     -0.00002  -0.00014   0.00012
1589  H 16  f 4      0.00011   0.00020  -0.00013
1590  H 16  f 5      0.00003  -0.00001  -0.00006
1591  H 16  f 6     -0.00018  -0.00024   0.00013
1592  H 16  f 7     -0.00004   0.00009   0.00001
1593  H 16  f 1     -0.00168  -0.00151   0.00132
1594  H 16  f 2      0.00030   0.00035   0.00099
1595  H 16  f 3      0.00040   0.00094  -0.00108
1596  H 16  f 4      0.00095   0.00034  -0.00100
1597  H 16  f 5     -0.00017  -0.00083   0.00109
1598  H 16  f 6     -0.00182  -0.00128   0.00247
1599  H 16  f 7      0.00251   0.00254  -0.00334
1600  H 16  g 1     -0.00014  -0.00016   0.00013
1601  H 16  g 2      0.00009   0.00015  -0.00006
1602  H 16  g 3     -0.00002   0.00001  -0.00004
1603  H 16  g 4     -0.00004  -0.00004   0.00002
1604  H 16  g 5     -0.00004   0.00005  -0.00003
1605  H 16  g 6      0.00011   0.00009  -0.00013
1606  H 16  g 7      0.00001  -0.00003   0.00003
1607  H 16  g 8     -0.00017  -0.00018   0.00024
1608  H 16  g 9      0.00011   0.00015  -0.00015

 -----------------------------------------------------------------
                    Cartesian Multipole Moments
 -----------------------------------------------------------------
    Charge (ESU x 10^10)
                 0.0000
    Dipole Moment (Debye)
         X      -2.9299      Y      -7.4164      Z       2.8140
       Tot       8.4561
    Quadrupole Moments (Debye-Ang)
        XX     -68.8557     XY       0.7189     YY     -39.1218
        XZ      -9.6369     YZ       6.9375     ZZ     -59.4760
    Octopole Moments (Debye-Ang^2)
       XXX     -64.1146    XXY     -38.2422    XYY      -6.9941
       YYY     -42.1401    XXZ       5.8269    XYZ      27.4446
       YYZ      52.1615    XZZ     -34.7948    YZZ      -6.7507
       ZZZ      13.6466
    Hexadecapole Moments (Debye-Ang^3)
      XXXX   -1915.2909   XXXY      23.5769   XXYY    -414.7212
      XYYY     -22.3655   YYYY    -518.0644   XXXZ    -118.9661
      XXYZ      55.9336   XYYZ     -23.0347   YYYZ      56.8967
      XXZZ    -582.1555   XYZZ     -25.2227   YYZZ    -191.4084
      XZZZ      64.3452   YZZZ     119.7447   ZZZZ    -786.1554
 -----------------------------------------------------------------
 Total job time:  241601.64s(wall), 241493.53s(cpu) 
 Sat Jan 18 04:54:46 2025

        *************************************************************
        *                                                           *
        *  Thank you very much for using Q-Chem.  Have a nice day.  *
        *                                                           *
        *************************************************************


