                  Welcome to Q-Chem
     A Quantum Leap Into The Future Of Chemistry


 Q-Chem 6.2 (devel), Q-Chem, Inc., Pleasanton, CA (2024)

 E. Epifanovsky,  A. T. B. Gilbert,  Xintian Feng,  Joonho Lee,  Yuezhi Mao,  
 N. Mardirossian,  P. Pokhilko,  A. White,  M. Wormit,  M. P. Coons,  
 A. L. Dempwolff,  Zhengting Gan,  D. Hait,  P. R. Horn,  L. D. Jacobson,  
 I. Kaliman,  J. Kussmann,  A. W. Lange,  Ka Un Lao,  D. S. Levine,  Jie Liu,  
 S. C. McKenzie,  A. F. Morrison,  K. D. Nanda,  F. Plasser,  D. R. Rehn,  
 M. L. Vidal,  Zhi-Qiang You,  Ying Zhu,  Huseyin Aksu,  B. Alam,  
 B. Albrecht,  A. Aldossary,  E. Alguire,  J. H. Andersen,  
 J. E. Arias-Martinez,  V. Athavale,  D. Barton,  K. Begam,  A. Behn,  
 N. Bellonzi,  Y. A. Bernard,  E. J. Berquist,  H. Burton,  A. Carreras,  
 K. Carter-Fenk,  Mathew Chow,  Romit Chakraborty,  Chandrima Chakravarty,  
 Junhan Chen,  A. D. Chien,  K. D. Closser,  V. Cofer-Shabica,  L. Cunha,  
 S. Dasgupta,  Jia Deng,  Joseph Dickinson,  M. de Wergifosse,  
 M. Diedenhofen,  Hainam Do,  Wenjie Dou,  S. Ehlert,  Po-Tung Fang,  
 S. Fatehi,  Qingguo Feng,  Jonathan Fetherolf,  T. Friedhoff,  
 Thomas Froitzheim,  Sarai Folkestad,  B. Ganoe,  J. Gayvert,  Qinghui Ge,  
 G. Gidofalvi,  M. Gimferrer,  M. Goldey,  Montgomery Gray,  J. Gomes,  
 C. Gonzalez-Espinoza,  S. Gulania,  A. Gunina,  J. A. Gyamfi,  
 M. W. D. Hanson-Heine,  P. H. P. Harbach,  A. W. Hauser,  M. F. Herbst,  
 M. Hernandez Vera,  M. Hodecker,  Z. C. Holden,  S. Houck,  Xunkun Huang,  
 Kerwin Hui,  B. C. Huynh,  K. Ikeda,  M. Ivanov,  Nayanthara K. Jayadev,  
 Hyunjun Ji,  Zuxin Jin,  Hanjie Jiang,  Subrata Jana,  B. Kaduk,  
 S. Kaehler,  R. Kang,  K. Khistyaev,  Jaehoon Kim,  Yongbin Kim,  
 P. Klunzinger,  Z. Koczor-Benda,  Joong Hoon Koh,  D. Kosenkov,  
 Saikiran Kotaru,  L. Koulias,  T. Kowalczyk,  C. M. Krauter,  K. Kue,  
 A. Kunitsa,  T. Kus,  A. Landau,  K. V. Lawler,  D. Lefrancois,  S. Lehtola,  
 Rain Li,  Shaozhi Li,  Tao E. Li,  Yi-Pei Li,  Jiashu Liang,  M. Liebenthal,  
 Hung-Hsuan Lin,  You-Sheng Lin,  Fenglai Liu,  Kuan-Yu Liu,  Xiao Liu,  
 M. Loipersberger,  A. Luenser,  C. Malbon,  Aniket Mandal,  Manisha,  
 A. Manjanath,  P. Manohar,  E. Mansoor,  S. F. Manzer,  Shan-Ping Mao,  
 A. V. Marenich,  T. Markovich,  S. Mason,  F. Matz,  S. A. Maurer,  
 Samuel May,  Alexandra McIsaac,  P. F. McLaughlin,  M. F. S. J. Menger,  
 J.-M. Mewes,  S. A. Mewes,  P. Morgante,  Mohammad Mostafanejad,  
 Madhubani Mukherjee,  J. W. Mullinax,  Quyen Nguyen,  Avik Kumar Ojha,  
 K. J. Oosterbaan,  Eno Paenurk,  Xiaoliang Pan,  G. Paran,  V. Parravicini,  
 Alexander C. Paul,  Suranjan K. Paul,  F. Pavosevic,  Zheng Pei,  S. Prager,  
 E. I. Proynov,  E. Ramos,  B. Rana,  A. E. Rask,  A. Rettig,  R. M. Richard,  
 F. Rob,  E. Rossomme,  T. Scheele,  M. Scheurer,  M. Schneider,  
 P. E. Schneider,  Tim K. Schramm,  N. Sergueev,  S. M. Sharada,  
 Hengyuan Shen,  W. Skomorowski,  D. W. Small,  C. J. Stein,  
 Alistair J. Sterling,  Yingli Su,  Yu-Chuan Su,  E. J. Sundstrom,  
 J. Talbot,  Zhen Tao,  J. Thirman,  Hung-Yi Tsai,  T. Tsuchimochi,  
 N. M. Tubman,  C. Utku,  S. P. Veccham,  O. Vydrov,  Rahel Weiss,  
 J. Wenzel,  Jonathan Wong,  J. Witte,  H. Wu,  Yanze Wu,  A. Yamada,  
 Chou-Hsun Yang,  Kun Yao,  S. Yeganeh,  S. R. Yost,  Qi Yu,  A. Zech,  
 F. Zeller,  Chongxiao Zhao,  Igor Ying Zhang,  Xing Zhang,  Yu Zhang,  
 D. Zuev,  A. Aspuru-Guzik,  A. T. Bell,  N. A. Besley,  K. B. Bravaya,  
 B. R. Brooks,  D. Casanova,  Jeng-Da Chai,  Hsing-Ta Chen,  S. Coriani,  
 C. J. Cramer,  A. E. DePrince, III,  R. A. DiStasio Jr.,  A. Dreuw,  
 B. D. Dunietz,  T. R. Furlani,  W. A. Goddard III,  S. Grimme,  
 S. Hammes-Schiffer,  T. Head-Gordon,  W. J. Hehre,  Chao-Ping Hsu,  
 T.-C. Jagau,  Yousung Jung,  A. Klamt,  Jing Kong,  D. S. Lambrecht,  
 Xiangyuan Li,  WanZhen Liang,  N. J. Mayhall,  C. W. McCurdy,  J. B. Neaton,  
 T. Neudecker,  C. Ochsenfeld,  J. A. Parkhill,  R. Peverati,  
 V. A. Rassolov,  Haisheng Ren,  Yihan Shao,  L. V. Slipchenko,  
 R. P. Steele,  J. E. Subotnik,  A. J. W. Thom,  A. Tkatchenko,  
 D. G. Truhlar,  T. Van Voorhis,  Fan Wang,  T. A. Wesolowski,  K. B. Whaley,  
 H. L. Woodcock III,  P. M. Zimmerman,  S. Faraji,  P. M. W. Gill,  
 M. Head-Gordon,  J. M. Herbert,  A. I. Krylov

 Contributors to earlier versions of Q-Chem not listed above: 
 R. D. Adamson,  B. Austin,  R. Baer,  J. Baker,  G. J. O. Beran,  
 K. Brandhorst,  S. T. Brown,  E. F. C. Byrd,  Arup K. Chakraborty,  
 G. K. L. Chan,  Chun-Min Chang,  Yunqing Chen,  C.-L. Cheng,  
 Siu Hung Chien,  D. M. Chipman,  D. L. Crittenden,  H. Dachsel,  
 R. J. Doerksen,  A. D. Dutoi,  R. G. Edgar,  J. Fosso-Tande,  
 L. Fusti-Molnar,  D. Ghosh,  A. Ghysels,  A. Golubeva-Zadorozhnaya,  
 J. Gonthier,  M. S. Gordon,  S. R. Gwaltney,  G. Hawkins,  J. E. Herr,  
 A. Heyden,  S. Hirata,  E. G. Hohenstein,  G. Kedziora,  F. J. Keil,  
 C. Kelley,  Jihan Kim,  R. A. King,  R. Z. Khaliullin,  P. P. Korambath,  
 W. Kurlancheek,  A. Laurent,  A. M. Lee,  M. S. Lee,  S. V. Levchenko,  
 Ching Yeh Lin,  D. Liotard,  E. Livshits,  R. C. Lochan,  I. Lotan,  
 L. A. Martinez-Martinez,  P. E. Maslen,  N. Nair,  D. P. O'Neill,  
 D. Neuhauser,  E. Neuscamman,  C. M. Oana,  R. Olivares-Amaya,  R. Olson,  
 T. M. Perrine,  B. Peters,  P. A. Pieniazek,  A. Prociuk,  Y. M. Rhee,  
 J. Ritchie,  M. A. Rohrdanz,  E. Rosta,  N. J. Russ,  H. F. Schaefer III,  
 M. W. Schmidt,  N. E. Schultz,  S. Sharma,  N. Shenvi,  C. D. Sherrill,  
 A. C. Simmonett,  A. Sodt,  T. Stein,  D. Stuck,  K. S. Thanthiriwatte,  
 V. Vanovschi,  L. Vogt,  Tao Wang,  A. Warshel,  M. A. Watson,  
 C. F. Williams,  Q. Wu,  X. Xu,  Jun Yang,  W. Zhang,  Yan Zhao

   Please cite Q-Chem as follows:
  "Software for the frontiers of quantum chemistry:
   An overview of developments in the Q-Chem 5 package"
   J. Chem. Phys. 155, 084801 (2021)
   https://doi.org/10.1063/5.0055522 (open access)

 Q-Chem 6.2.2 for Intel X86 EM64T Linux

 Parts of Q-Chem use Armadillo 9.900.5 (Nocturnal Misbehaviour).
 http://arma.sourceforge.net/

 Q-Chem begins on Sat Jan 18 12:12:58 2025  

 Host: compute-0-15.local
0

     Scratch files written to /scratch/keith/A2D2_2//
 Processing $rem in /home/keith/software/qchem/qchem_622/config/preferences:
 Processing $rem in /home/keith/.qchemrc:

 Checking the input file for inconsistencies... 	...done.

--------------------------------------------------------------
User input:
--------------------------------------------------------------
$molecule
read
$end

$rem
method                    b3lyp 
basis                     cc-pv5z 
mem_total                 63000
mem_static                8000
thresh                    12
scf_convergence           8
xc_grid                   000075000302
max_scf_cycles            2000
symmetry                  false
sym_ignore                true
scf_guess                 read
skip_scfman               true
cis_n_roots               150
cis_triplets              false
rpa                       false 
trnss                     true
trtype                    3
n_sol                     1
nto_pairs                 2
gui                       2
print_orbitals            true
state_analysis            true
$end

$solute 
3 
$end
--------------------------------------------------------------
 ----------------------------------------------------------------
             Standard Nuclear Orientation (Angstroms)
    I     Atom           X                Y                Z
 ----------------------------------------------------------------
    1      O       0.7895600000     0.0372700000     0.8055400000
    2      H       0.2217300000    -0.7211300000     0.8915400000
    3      H       0.5685300000     0.3869400000    -0.0605600000
    4      O      -3.0884400000    -1.3177300000    -0.6634600000
    5      H      -2.2427400000    -1.7147300000    -0.4890600000
    6      H      -3.6379400000    -1.7585300000    -0.0074600000
    7      O      -1.0143400000    -2.5435300000     0.6555400000
    8      H      -0.1919400000    -3.0991300000     0.5315400000
    9      H      -1.3707400000    -2.9245300000     1.4845400000
   10      O      -2.4832400000     1.3234100000    -0.4436600000
   11      H      -3.1416400000     0.5940200000    -0.3292600000
   12      H      -2.0821400000     1.3829000000     0.4435400000
   13      O      -1.1947400000     1.8483600000     2.1955400000
   14      H      -1.1642400000     2.6862700000     2.6695400000
   15      H      -0.2901400000     1.6005100000     1.9315400000
   16      O       3.6995600000    -0.9315300000     1.4845400000
   17      H       2.8950600000    -0.4775300000     1.2905400000
   18      H       3.5377600000    -1.7529300000     0.9425400000
   19      O       3.3606600000     0.9411300000    -2.2614600000
   20      H       4.0444600000     0.4452100000    -1.7672600000
   21      H       2.5403600000     0.3935200000    -2.2350600000
   22      O       0.0070900000     0.8966200000    -1.8612600000
   23      H      -0.0118400000     0.0823700000    -2.3953600000
   24      H      -0.8831400000     0.8455800000    -1.4937600000
 ----------------------------------------------------------------
 Nuclear Repulsion Energy =         436.99462664 hartrees
 There are       40 alpha and       40 beta electrons
 Requested basis set is cc-pV5Z
 There are 408 shells and 1608 basis functions

 Total QAlloc Memory Limit  63000 MB
 Mega-Array Size      7821 MB
 MEM_STATIC part      8000 MB

 A cutoff of  1.0D-12 yielded  47673 shell pairs
 There are    610043 function pairs (   1000497 Cartesian)
 Smallest overlap matrix eigenvalue = 2.20E-05

 Scale SEOQF with 1.000000e-01/1.000000e-01/1.000000e-01

 Standard Electronic Orientation quadrupole field applied
 Nucleus-field energy     =     0.0000000090 hartrees
 Guess MOs from SCF MO coefficient file
 Reading MOs from coefficient file
 Reading MOs from coefficient file
 Skipping gen_scfman as requested.
 MAX_CIS_SUBSPACE fits in available memory
 Direct TDDFT/TDA calculation will be performed
 Exchange:     0.2000 Hartree-Fock + 0.0800 Slater + 0.7200 B88
 Correlation:  0.1900 VWN1RPA + 0.8100 LYP
 Using Euler-Maclaurin-Lebedev (75,302) quadrature formula
 Singlet excitation energies requested
 CIS energy converged when residual is below 10e- 6
   
 ***Using a Restricted Set of Single Excitations***
   
 RCIS calculation
   
 Excitations from specified occupied orbitals
 -------------------------------------------------------------
              Orbitals in Truncated CIS space
 -------------------------------------------------------------
     3  41  42  43  44  45  46  47  48  49  50  51  52  53  54
    55  56  57  58  59  60  61  62  63  64  65  66  67  68  69
    70  71  72  73  74  75  76  77  78  79  80  81  82  83  84
    85  86  87  88  89  90  91  92  93  94  95  96  97  98  99
   100 101 102 103 104 105 106 107 108 109 110 111 112 113 114
   115 116 117 118 119 120 121 122 123 124 125 126 127 128 129
   130 131 132 133 134 135 136 137 138 139 140 141 142 143 144
   145 146 147 148 149 150 151 152 153 154 155 156 157 158 159
   160 161 162 163 164 165 166 167 168 169 170 171 172 173 174
   175 176 177 178 179 180 181 182 183 184 185 186 187 188 189
   190 191 192 193 194 195 196 197 198 199 200 201 202 203 204
   205 206 207 208 209 210 211 212 213 214 215 216 217 218 219
   220 221 222 223 224 225 226 227 228 229 230 231 232 233 234
   235 236 237 238 239 240 241 242 243 244 245 246 247 248 249
   250 251 252 253 254 255 256 257 258 259 260 261 262 263 264
   265 266 267 268 269 270 271 272 273 274 275 276 277 278 279
   280 281 282 283 284 285 286 287 288 289 290 291 292 293 294
   295 296 297 298 299 300 301 302 303 304 305 306 307 308 309
   310 311 312 313 314 315 316 317 318 319 320 321 322 323 324
   325 326 327 328 329 330 331 332 333 334 335 336 337 338 339
   340 341 342 343 344 345 346 347 348 349 350 351 352 353 354
   355 356 357 358 359 360 361 362 363 364 365 366 367 368 369
   370 371 372 373 374 375 376 377 378 379 380 381 382 383 384
   385 386 387 388 389 390 391 392 393 394 395 396 397 398 399
   400 401 402 403 404 405 406 407 408 409 410 411 412 413 414
   415 416 417 418 419 420 421 422 423 424 425 426 427 428 429
   430 431 432 433 434 435 436 437 438 439 440 441 442 443 444
   445 446 447 448 449 450 451 452 453 454 455 456 457 458 459
   460 461 462 463 464 465 466 467 468 469 470 471 472 473 474
   475 476 477 478 479 480 481 482 483 484 485 486 487 488 489
   490 491 492 493 494 495 496 497 498 499 500 501 502 503 504
   505 506 507 508 509 510 511 512 513 514 515 516 517 518 519
   520 521 522 523 524 525 526 527 528 529 530 531 532 533 534
   535 536 537 538 539 540 541 542 543 544 545 546 547 548 549
   550 551 552 553 554 555 556 557 558 559 560 561 562 563 564
   565 566 567 568 569 570 571 572 573 574 575 576 577 578 579
   580 581 582 583 584 585 586 587 588 589 590 591 592 593 594
   595 596 597 598 599 600 601 602 603 604 605 606 607 608 609
   610 611 612 613 614 615 616 617 618 619 620 621 622 623 624
   625 626 627 628 629 630 631 632 633 634 635 636 637 638 639
   640 641 642 643 644 645 646 647 648 649 650 651 652 653 654
   655 656 657 658 659 660 661 662 663 664 665 666 667 668 669
   670 671 672 673 674 675 676 677 678 679 680 681 682 683 684
   685 686 687 688 689 690 691 692 693 694 695 696 697 698 699
   700 701 702 703 704 705 706 707 708 709 710 711 712 713 714
   715 716 717 718 719 720 721 722 723 724 725 726 727 728 729
   730 731 732 733 734 735 736 737 738 739 740 741 742 743 744
   745 746 747 748 749 750 751 752 753 754 755 756 757 758 759
   760 761 762 763 764 765 766 767 768 769 770 771 772 773 774
   775 776 777 778 779 780 781 782 783 784 785 786 787 788 789
   790 791 792 793 794 795 796 797 798 799 800 801 802 803 804
   805 806 807 808 809 810 811 812 813 814 815 816 817 818 819
   820 821 822 823 824 825 826 827 828 829 830 831 832 833 834
   835 836 837 838 839 840 841 842 843 844 845 846 847 848 849
   850 851 852 853 854 855 856 857 858 859 860 861 862 863 864
   865 866 867 868 869 870 871 872 873 874 875 876 877 878 879
   880 881 882 883 884 885 886 887 888 889 890 891 892 893 894
   895 896 897 898 899 900 901 902 903 904 905 906 907 908 909
   910 911 912 913 914 915 916 917 918 919 920 921 922 923 924
   925 926 927 928 929 930 931 932 933 934 935 936 937 938 939
   940 941 942 943 944 945 946 947 948 949 950 951 952 953 954
   955 956 957 958 959 960 961 962 963 964 965 966 967 968 969
   970 971 972 973 974 975 976 977 978 979 980 981 982 983 984
   985 986 987 988 989 990 991 992 993 994 995 996 997 998 999
  100010011002100310041005100610071008100910101011101210131014
  101510161017101810191020102110221023102410251026102710281029
  103010311032103310341035103610371038103910401041104210431044
  104510461047104810491050105110521053105410551056105710581059
  106010611062106310641065106610671068106910701071107210731074
  107510761077107810791080108110821083108410851086108710881089
  109010911092109310941095109610971098109911001101110211031104
  110511061107110811091110111111121113111411151116111711181119
  112011211122112311241125112611271128112911301131113211331134
  113511361137113811391140114111421143114411451146114711481149
  115011511152115311541155115611571158115911601161116211631164
  116511661167116811691170117111721173117411751176117711781179
  118011811182118311841185118611871188118911901191119211931194
  119511961197119811991200120112021203120412051206120712081209
  121012111212121312141215121612171218121912201221122212231224
  122512261227122812291230123112321233123412351236123712381239
  124012411242124312441245124612471248124912501251125212531254
  125512561257125812591260126112621263126412651266126712681269
  127012711272127312741275127612771278127912801281128212831284
  128512861287128812891290129112921293129412951296129712981299
  130013011302130313041305130613071308130913101311131213131314
  131513161317131813191320132113221323132413251326132713281329
  133013311332133313341335133613371338133913401341134213431344
  134513461347134813491350135113521353135413551356135713581359
  136013611362136313641365136613671368136913701371137213731374
  137513761377137813791380138113821383138413851386138713881389
  139013911392139313941395139613971398139914001401140214031404
  140514061407140814091410141114121413141414151416141714181419
  142014211422142314241425142614271428142914301431143214331434
  143514361437143814391440144114421443144414451446144714481449
  145014511452145314541455145614571458145914601461146214631464
  146514661467146814691470147114721473147414751476147714781479
  148014811482148314841485148614871488148914901491149214931494
  149514961497149814991500150115021503150415051506150715081509
  151015111512151315141515151615171518151915201521152215231524
  152515261527152815291530153115321533153415351536153715381539
  154015411542154315441545154615471548154915501551155215531554
  155515561557155815591560156115621563156415651566156715681569
  157015711572157315741575157615771578157915801581158215831584
  158515861587158815891590159115921593159415951596159715981599
  160016011602160316041605160616071608
   
    Number of Occupied Orbitals =    1  out of    40
    Number of Virtual Orbitals  = 1568  out of  1568
 -------------------------------------------------------------
 Number of Roots adjusted to:         151
 ---------------------------------------------------
 Iter    Rts Conv    Rts Left    Ttl Dev     Max Dev
 ---------------------------------------------------
   1         0         151      0.010583    0.000221
   2        30         121      0.006740    0.000122
   3       146           5      0.006700    0.000122
   4       151           0      0.006700    0.000122    Roots Converged
 ---------------------------------------------------

 ---------------------------------------------------
         TDDFT/TDA Excitation Energies              
 ---------------------------------------------------

 Excited state   1: excitation energy (eV) =     518.1571
 Total energy for state   1:                  -592.78335425 au
    Multiplicity: Singlet
    Trans. Mom.: -0.0048 X  -0.0104 Y  -0.0031 Z
    Strength   :     0.0017785248
    D(    3) --> V(    1) amplitude =  0.9896

 Excited state   2: excitation energy (eV) =     519.3953
 Total energy for state   2:                  -592.73785198 au
    Multiplicity: Singlet
    Trans. Mom.: -0.0042 X  -0.0007 Y   0.0073 Z
    Strength   :     0.0009067878
    D(    3) --> V(    2) amplitude =  0.9843

 Excited state   3: excitation energy (eV) =     519.7390
 Total energy for state   3:                  -592.72522148 au
    Multiplicity: Singlet
    Trans. Mom.: -0.0111 X   0.0081 Y  -0.0011 Z
    Strength   :     0.0024164566
    D(    3) --> V(    3) amplitude =  0.9665

 Excited state   4: excitation energy (eV) =     520.0474
 Total energy for state   4:                  -592.71388858 au
    Multiplicity: Singlet
    Trans. Mom.:  0.0026 X  -0.0027 Y  -0.0108 Z
    Strength   :     0.0016559614
    D(    3) --> V(    4) amplitude =  0.9721

 Excited state   5: excitation energy (eV) =     520.4545
 Total energy for state   5:                  -592.69892907 au
    Multiplicity: Singlet
    Trans. Mom.:  0.0083 X   0.0005 Y   0.0029 Z
    Strength   :     0.0009794683
    D(    3) --> V(    5) amplitude =  0.9729

 Excited state   6: excitation energy (eV) =     520.7334
 Total energy for state   6:                  -592.68867846 au
    Multiplicity: Singlet
    Trans. Mom.:  0.0015 X   0.0004 Y  -0.0000 Z
    Strength   :     0.0000311660
    D(    3) --> V(    6) amplitude =  0.9812

 Excited state   7: excitation energy (eV) =     521.0906
 Total energy for state   7:                  -592.67555229 au
    Multiplicity: Singlet
    Trans. Mom.:  0.0082 X   0.0118 Y   0.0018 Z
    Strength   :     0.0027019205
    D(    3) --> V(    7) amplitude =  0.8671
    D(    3) --> V(    8) amplitude = -0.4138

 Excited state   8: excitation energy (eV) =     521.5323
 Total energy for state   8:                  -592.65931742 au
    Multiplicity: Singlet
    Trans. Mom.: -0.0062 X  -0.0043 Y  -0.0003 Z
    Strength   :     0.0007353303
    D(    3) --> V(    7) amplitude =  0.4633
    D(    3) --> V(    8) amplitude =  0.8682

 Excited state   9: excitation energy (eV) =     521.9975
 Total energy for state   9:                  -592.64222394 au
    Multiplicity: Singlet
    Trans. Mom.:  0.0165 X   0.0150 Y   0.0039 Z
    Strength   :     0.0065334192
    D(    3) --> V(    9) amplitude =  0.7527
    D(    3) --> V(   11) amplitude = -0.6186

 Excited state  10: excitation energy (eV) =     522.1477
 Total energy for state  10:                  -592.63670535 au
    Multiplicity: Singlet
    Trans. Mom.: -0.0015 X  -0.0169 Y   0.0012 Z
    Strength   :     0.0036973819
    D(    3) --> V(    9) amplitude =  0.4491
    D(    3) --> V(   10) amplitude =  0.6958
    D(    3) --> V(   11) amplitude =  0.4981

 Excited state  11: excitation energy (eV) =     522.2052
 Total energy for state  11:                  -592.63458959 au
    Multiplicity: Singlet
    Trans. Mom.:  0.0075 X   0.0141 Y  -0.0002 Z
    Strength   :     0.0032715167
    D(    3) --> V(    9) amplitude = -0.4442
    D(    3) --> V(   10) amplitude =  0.7092
    D(    3) --> V(   11) amplitude = -0.5111

 Excited state  12: excitation energy (eV) =     522.6913
 Total energy for state  12:                  -592.61672520 au
    Multiplicity: Singlet
    Trans. Mom.: -0.0005 X   0.0060 Y  -0.0266 Z
    Strength   :     0.0095022279
    D(    3) --> V(   12) amplitude =  0.7480
    D(    3) --> V(   13) amplitude = -0.5480
    D(    3) --> V(   14) amplitude =  0.2391

 Excited state  13: excitation energy (eV) =     523.0075
 Total energy for state  13:                  -592.60510662 au
    Multiplicity: Singlet
    Trans. Mom.:  0.0205 X  -0.0095 Y  -0.0016 Z
    Strength   :     0.0065655506
    D(    3) --> V(   12) amplitude =  0.2939
    D(    3) --> V(   13) amplitude =  0.6585
    D(    3) --> V(   14) amplitude =  0.6403

 Excited state  14: excitation energy (eV) =     523.1810
 Total energy for state  14:                  -592.59873210 au
    Multiplicity: Singlet
    Trans. Mom.:  0.0023 X  -0.0030 Y  -0.0110 Z
    Strength   :     0.0017333230
    D(    3) --> V(   12) amplitude = -0.5303
    D(    3) --> V(   13) amplitude = -0.4296
    D(    3) --> V(   14) amplitude =  0.6966

 Excited state  15: excitation energy (eV) =     523.6216
 Total energy for state  15:                  -592.58253982 au
    Multiplicity: Singlet
    Trans. Mom.:  0.0009 X   0.0087 Y   0.0032 Z
    Strength   :     0.0011107252
    D(    3) --> V(   15) amplitude =  0.9302
    D(    3) --> V(   16) amplitude = -0.2459

 Excited state  16: excitation energy (eV) =     523.7993
 Total energy for state  16:                  -592.57600846 au
    Multiplicity: Singlet
    Trans. Mom.:  0.0015 X  -0.0029 Y  -0.0024 Z
    Strength   :     0.0002081729
    D(    3) --> V(   15) amplitude =  0.2468
    D(    3) --> V(   16) amplitude =  0.9387

 Excited state  17: excitation energy (eV) =     524.2515
 Total energy for state  17:                  -592.55938997 au
    Multiplicity: Singlet
    Trans. Mom.:  0.0027 X   0.0040 Y   0.0003 Z
    Strength   :     0.0003010577
    D(    3) --> V(   17) amplitude =  0.9285
    D(    3) --> V(   18) amplitude =  0.2354

 Excited state  18: excitation energy (eV) =     524.4926
 Total energy for state  18:                  -592.55053150 au
    Multiplicity: Singlet
    Trans. Mom.:  0.0122 X   0.0133 Y  -0.0086 Z
    Strength   :     0.0051163192
    D(    3) --> V(   17) amplitude = -0.2667
    D(    3) --> V(   18) amplitude =  0.7276
    D(    3) --> V(   22) amplitude = -0.2902
    D(    3) --> V(   23) amplitude =  0.2980
    D(    3) --> V(   25) amplitude =  0.2907
    D(    3) --> V(   26) amplitude = -0.2195

 Excited state  19: excitation energy (eV) =     524.5801
 Total energy for state  19:                  -592.54731354 au
    Multiplicity: Singlet
    Trans. Mom.: -0.0074 X   0.0220 Y  -0.0189 Z
    Strength   :     0.0115329157
    D(    3) --> V(   18) amplitude = -0.5415
    D(    3) --> V(   19) amplitude =  0.5569
    D(    3) --> V(   22) amplitude = -0.2188
    D(    3) --> V(   23) amplitude =  0.2651
    D(    3) --> V(   25) amplitude =  0.2357
    D(    3) --> V(   26) amplitude = -0.2341

 Excited state  20: excitation energy (eV) =     524.8657
 Total energy for state  20:                  -592.53681993 au
    Multiplicity: Singlet
    Trans. Mom.: -0.0140 X  -0.0104 Y   0.0089 Z
    Strength   :     0.0049291570
    D(    3) --> V(   18) amplitude =  0.2276
    D(    3) --> V(   19) amplitude =  0.6166
    D(    3) --> V(   20) amplitude = -0.5651
    D(    3) --> V(   23) amplitude = -0.2881

 Excited state  21: excitation energy (eV) =     525.0007
 Total energy for state  21:                  -592.53185779 au
    Multiplicity: Singlet
    Trans. Mom.: -0.0023 X  -0.0048 Y   0.0071 Z
    Strength   :     0.0010158989
    D(    3) --> V(   19) amplitude =  0.4585
    D(    3) --> V(   20) amplitude =  0.7993

 Excited state  22: excitation energy (eV) =     525.2683
 Total energy for state  22:                  -592.52202440 au
    Multiplicity: Singlet
    Trans. Mom.: -0.0036 X  -0.0033 Y   0.0024 Z
    Strength   :     0.0003833649
    D(    3) --> V(   21) amplitude =  0.9682

 Excited state  23: excitation energy (eV) =     525.5586
 Total energy for state  23:                  -592.51135506 au
    Multiplicity: Singlet
    Trans. Mom.:  0.0047 X   0.0105 Y   0.0052 Z
    Strength   :     0.0020589303
    D(    3) --> V(   22) amplitude =  0.8430
    D(    3) --> V(   23) amplitude =  0.3198
    D(    3) --> V(   25) amplitude =  0.3560

 Excited state  24: excitation energy (eV) =     525.6083
 Total energy for state  24:                  -592.50952866 au
    Multiplicity: Singlet
    Trans. Mom.:  0.0043 X  -0.0044 Y  -0.0020 Z
    Strength   :     0.0005397240
    D(    3) --> V(   23) amplitude =  0.5396
    D(    3) --> V(   24) amplitude =  0.6669
    D(    3) --> V(   25) amplitude = -0.4396

 Excited state  25: excitation energy (eV) =     525.7847
 Total energy for state  25:                  -592.50304689 au
    Multiplicity: Singlet
    Trans. Mom.:  0.0045 X   0.0066 Y   0.0111 Z
    Strength   :     0.0024088639
    D(    3) --> V(   23) amplitude = -0.2249
    D(    3) --> V(   24) amplitude =  0.6041
    D(    3) --> V(   25) amplitude =  0.6266
    D(    3) --> V(   26) amplitude =  0.2436

 Excited state  26: excitation energy (eV) =     525.8575
 Total energy for state  26:                  -592.50037224 au
    Multiplicity: Singlet
    Trans. Mom.: -0.0018 X  -0.0035 Y   0.0094 Z
    Strength   :     0.0013417412
    D(    3) --> V(   23) amplitude =  0.4613
    D(    3) --> V(   24) amplitude = -0.3640
    D(    3) --> V(   26) amplitude =  0.6627
    D(    3) --> V(   27) amplitude = -0.2232

 Excited state  27: excitation energy (eV) =     526.0916
 Total energy for state  27:                  -592.49176661 au
    Multiplicity: Singlet
    Trans. Mom.: -0.0135 X   0.0058 Y  -0.0093 Z
    Strength   :     0.0039226705
    D(    3) --> V(   26) amplitude =  0.4577
    D(    3) --> V(   27) amplitude =  0.5365
    D(    3) --> V(   28) amplitude =  0.3608
    D(    3) --> V(   29) amplitude =  0.2829
    D(    3) --> V(   30) amplitude =  0.3808

 Excited state  28: excitation energy (eV) =     526.1928
 Total energy for state  28:                  -592.48805067 au
    Multiplicity: Singlet
    Trans. Mom.:  0.0082 X  -0.0067 Y   0.0039 Z
    Strength   :     0.0016386059
    D(    3) --> V(   27) amplitude =  0.7055
    D(    3) --> V(   28) amplitude = -0.5585
    D(    3) --> V(   31) amplitude = -0.2817

 Excited state  29: excitation energy (eV) =     526.3869
 Total energy for state  29:                  -592.48091461 au
    Multiplicity: Singlet
    Trans. Mom.: -0.0091 X  -0.0070 Y  -0.0021 Z
    Strength   :     0.0017525608
    D(    3) --> V(   26) amplitude = -0.2527
    D(    3) --> V(   29) amplitude =  0.8911

 Excited state  30: excitation energy (eV) =     526.4583
 Total energy for state  30:                  -592.47829087 au
    Multiplicity: Singlet
    Trans. Mom.: -0.0055 X   0.0028 Y  -0.0094 Z
    Strength   :     0.0016355744
    D(    3) --> V(   28) amplitude = -0.6284
    D(    3) --> V(   30) amplitude =  0.6489
    D(    3) --> V(   36) amplitude =  0.2213

 Excited state  31: excitation energy (eV) =     526.6497
 Total energy for state  31:                  -592.47125872 au
    Multiplicity: Singlet
    Trans. Mom.: -0.0067 X   0.0075 Y   0.0110 Z
    Strength   :     0.0028661014
    D(    3) --> V(   31) amplitude =  0.8764

 Excited state  32: excitation energy (eV) =     526.7828
 Total energy for state  32:                  -592.46636657 au
    Multiplicity: Singlet
    Trans. Mom.: -0.0000 X  -0.0049 Y  -0.0091 Z
    Strength   :     0.0013765995
    D(    3) --> V(   32) amplitude =  0.8900
    D(    3) --> V(   33) amplitude = -0.2405
    D(    3) --> V(   36) amplitude =  0.2136

 Excited state  33: excitation energy (eV) =     527.0232
 Total energy for state  33:                  -592.45753223 au
    Multiplicity: Singlet
    Trans. Mom.:  0.0001 X  -0.0020 Y   0.0101 Z
    Strength   :     0.0013698175
    D(    3) --> V(   30) amplitude =  0.3307
    D(    3) --> V(   33) amplitude = -0.4484
    D(    3) --> V(   34) amplitude =  0.7151
    D(    3) --> V(   36) amplitude = -0.3122

 Excited state  34: excitation energy (eV) =     527.0808
 Total energy for state  34:                  -592.45541520 au
    Multiplicity: Singlet
    Trans. Mom.: -0.0016 X  -0.0014 Y   0.0086 Z
    Strength   :     0.0010102964
    D(    3) --> V(   32) amplitude =  0.2978
    D(    3) --> V(   33) amplitude =  0.7904
    D(    3) --> V(   34) amplitude =  0.2968
    D(    3) --> V(   36) amplitude = -0.3542

 Excited state  35: excitation energy (eV) =     527.2222
 Total energy for state  35:                  -592.45021956 au
    Multiplicity: Singlet
    Trans. Mom.: -0.0003 X  -0.0025 Y   0.0003 Z
    Strength   :     0.0000824182
    D(    3) --> V(   35) amplitude =  0.9775

 Excited state  36: excitation energy (eV) =     527.2627
 Total energy for state  36:                  -592.44873016 au
    Multiplicity: Singlet
    Trans. Mom.:  0.0009 X  -0.0029 Y  -0.0074 Z
    Strength   :     0.0008285994
    D(    3) --> V(   30) amplitude = -0.2361
    D(    3) --> V(   34) amplitude =  0.5556
    D(    3) --> V(   36) amplitude =  0.7360

 Excited state  37: excitation energy (eV) =     527.5140
 Total energy for state  37:                  -592.43949614 au
    Multiplicity: Singlet
    Trans. Mom.:  0.0060 X  -0.0034 Y   0.0029 Z
    Strength   :     0.0007175742
    D(    3) --> V(   37) amplitude =  0.9351
    D(    3) --> V(   38) amplitude = -0.2357

 Excited state  38: excitation energy (eV) =     527.6621
 Total energy for state  38:                  -592.43405250 au
    Multiplicity: Singlet
    Trans. Mom.: -0.0056 X  -0.0030 Y  -0.0027 Z
    Strength   :     0.0006178436
    D(    3) --> V(   37) amplitude =  0.2267
    D(    3) --> V(   38) amplitude =  0.9324

 Excited state  39: excitation energy (eV) =     527.8105
 Total energy for state  39:                  -592.42859935 au
    Multiplicity: Singlet
    Trans. Mom.:  0.0045 X  -0.0029 Y  -0.0052 Z
    Strength   :     0.0007166280
    D(    3) --> V(   39) amplitude =  0.9563

 Excited state  40: excitation energy (eV) =     527.9266
 Total energy for state  40:                  -592.42433134 au
    Multiplicity: Singlet
    Trans. Mom.:  0.0032 X   0.0030 Y   0.0059 Z
    Strength   :     0.0006992449
    D(    3) --> V(   40) amplitude =  0.9561

 Excited state  41: excitation energy (eV) =     528.0740
 Total energy for state  41:                  -592.41891745 au
    Multiplicity: Singlet
    Trans. Mom.: -0.0024 X   0.0089 Y  -0.0028 Z
    Strength   :     0.0011943455
    D(    3) --> V(   41) amplitude =  0.9533

 Excited state  42: excitation energy (eV) =     528.3783
 Total energy for state  42:                  -592.40773434 au
    Multiplicity: Singlet
    Trans. Mom.:  0.0103 X   0.0053 Y  -0.0042 Z
    Strength   :     0.0019638780
    D(    3) --> V(   42) amplitude = -0.6193
    D(    3) --> V(   43) amplitude =  0.7467

 Excited state  43: excitation energy (eV) =     528.4734
 Total energy for state  43:                  -592.40423736 au
    Multiplicity: Singlet
    Trans. Mom.:  0.0031 X  -0.0005 Y  -0.0002 Z
    Strength   :     0.0001297820
    D(    3) --> V(   42) amplitude =  0.7367
    D(    3) --> V(   43) amplitude =  0.6192

 Excited state  44: excitation energy (eV) =     528.5767
 Total energy for state  44:                  -592.40044163 au
    Multiplicity: Singlet
    Trans. Mom.:  0.0012 X   0.0054 Y   0.0075 Z
    Strength   :     0.0011247872
    D(    3) --> V(   42) amplitude = -0.2225
    D(    3) --> V(   44) amplitude =  0.9375

 Excited state  45: excitation energy (eV) =     528.7127
 Total energy for state  45:                  -592.39544606 au
    Multiplicity: Singlet
    Trans. Mom.:  0.0019 X   0.0023 Y  -0.0076 Z
    Strength   :     0.0008638870
    D(    3) --> V(   45) amplitude =  0.9402
    D(    3) --> V(   46) amplitude =  0.2266

 Excited state  46: excitation energy (eV) =     529.0163
 Total energy for state  46:                  -592.38428547 au
    Multiplicity: Singlet
    Trans. Mom.: -0.0022 X   0.0002 Y  -0.0089 Z
    Strength   :     0.0010820717
    D(    3) --> V(   45) amplitude = -0.2437
    D(    3) --> V(   46) amplitude =  0.9296

 Excited state  47: excitation energy (eV) =     529.2870
 Total energy for state  47:                  -592.37433931 au
    Multiplicity: Singlet
    Trans. Mom.: -0.0054 X  -0.0021 Y  -0.0057 Z
    Strength   :     0.0008486012
    D(    3) --> V(   47) amplitude =  0.9396

 Excited state  48: excitation energy (eV) =     529.4886
 Total energy for state  48:                  -592.36693064 au
    Multiplicity: Singlet
    Trans. Mom.: -0.0014 X   0.0087 Y   0.0008 Z
    Strength   :     0.0010141774
    D(    3) --> V(   48) amplitude =  0.8597
    D(    3) --> V(   49) amplitude = -0.4451

 Excited state  49: excitation energy (eV) =     529.6543
 Total energy for state  49:                  -592.36084104 au
    Multiplicity: Singlet
    Trans. Mom.:  0.0001 X   0.0023 Y   0.0049 Z
    Strength   :     0.0003802985
    D(    3) --> V(   48) amplitude =  0.4221
    D(    3) --> V(   49) amplitude =  0.8782

 Excited state  50: excitation energy (eV) =     529.8443
 Total energy for state  50:                  -592.35385718 au
    Multiplicity: Singlet
    Trans. Mom.:  0.0004 X  -0.0020 Y   0.0054 Z
    Strength   :     0.0004382287
    D(    3) --> V(   50) amplitude =  0.9529
    D(    3) --> V(   51) amplitude = -0.2169

 Excited state  51: excitation energy (eV) =     529.9805
 Total energy for state  51:                  -592.34885190 au
    Multiplicity: Singlet
    Trans. Mom.: -0.0018 X  -0.0010 Y  -0.0006 Z
    Strength   :     0.0000584771
    D(    3) --> V(   51) amplitude =  0.9603

 Excited state  52: excitation energy (eV) =     530.2522
 Total energy for state  52:                  -592.33886863 au
    Multiplicity: Singlet
    Trans. Mom.:  0.0040 X  -0.0051 Y   0.0079 Z
    Strength   :     0.0013609989
    D(    3) --> V(   52) amplitude =  0.8673
    D(    3) --> V(   53) amplitude = -0.4090

 Excited state  53: excitation energy (eV) =     530.2703
 Total energy for state  53:                  -592.33820364 au
    Multiplicity: Singlet
    Trans. Mom.: -0.0096 X  -0.0098 Y  -0.0065 Z
    Strength   :     0.0030156299
    D(    3) --> V(   52) amplitude =  0.3587
    D(    3) --> V(   53) amplitude =  0.8115
    D(    3) --> V(   54) amplitude =  0.2998
    D(    3) --> V(   55) amplitude = -0.2192

 Excited state  54: excitation energy (eV) =     530.5820
 Total energy for state  54:                  -592.32674992 au
    Multiplicity: Singlet
    Trans. Mom.: -0.0075 X  -0.0084 Y   0.0055 Z
    Strength   :     0.0020471156
    D(    3) --> V(   52) amplitude = -0.2761
    D(    3) --> V(   53) amplitude = -0.2145
    D(    3) --> V(   54) amplitude =  0.9061

 Excited state  55: excitation energy (eV) =     530.7531
 Total energy for state  55:                  -592.32046093 au
    Multiplicity: Singlet
    Trans. Mom.:  0.0011 X  -0.0028 Y   0.0045 Z
    Strength   :     0.0003824996
    D(    3) --> V(   53) amplitude =  0.2587
    D(    3) --> V(   55) amplitude =  0.9524

 Excited state  56: excitation energy (eV) =     530.8767
 Total energy for state  56:                  -592.31591732 au
    Multiplicity: Singlet
    Trans. Mom.: -0.0046 X  -0.0029 Y   0.0018 Z
    Strength   :     0.0004254973
    D(    3) --> V(   56) amplitude =  0.9811

 Excited state  57: excitation energy (eV) =     531.3033
 Total energy for state  57:                  -592.30024226 au
    Multiplicity: Singlet
    Trans. Mom.:  0.0003 X  -0.0039 Y   0.0020 Z
    Strength   :     0.0002509734
    D(    3) --> V(   57) amplitude =  0.9840

 Excited state  58: excitation energy (eV) =     531.6611
 Total energy for state  58:                  -592.28709284 au
    Multiplicity: Singlet
    Trans. Mom.:  0.0022 X   0.0031 Y   0.0024 Z
    Strength   :     0.0002650450
    D(    3) --> V(   58) amplitude =  0.9487

 Excited state  59: excitation energy (eV) =     531.8458
 Total energy for state  59:                  -592.28030390 au
    Multiplicity: Singlet
    Trans. Mom.: -0.0032 X  -0.0010 Y   0.0057 Z
    Strength   :     0.0005634742
    D(    3) --> V(   59) amplitude =  0.9456
    D(    3) --> V(   60) amplitude =  0.2373

 Excited state  60: excitation energy (eV) =     531.9903
 Total energy for state  60:                  -592.27499329 au
    Multiplicity: Singlet
    Trans. Mom.: -0.0015 X  -0.0088 Y   0.0086 Z
    Strength   :     0.0020144597
    D(    3) --> V(   58) amplitude = -0.2297
    D(    3) --> V(   61) amplitude =  0.8852
    D(    3) --> V(   62) amplitude = -0.2340

 Excited state  61: excitation energy (eV) =     532.0417
 Total energy for state  61:                  -592.27310479 au
    Multiplicity: Singlet
    Trans. Mom.:  0.0033 X  -0.0020 Y   0.0016 Z
    Strength   :     0.0002291198
    D(    3) --> V(   59) amplitude = -0.2391
    D(    3) --> V(   60) amplitude =  0.9414

 Excited state  62: excitation energy (eV) =     532.4262
 Total energy for state  62:                  -592.25897649 au
    Multiplicity: Singlet
    Trans. Mom.:  0.0000 X   0.0020 Y  -0.0009 Z
    Strength   :     0.0000624986
    D(    3) --> V(   61) amplitude =  0.2590
    D(    3) --> V(   62) amplitude =  0.9385

 Excited state  63: excitation energy (eV) =     532.7254
 Total energy for state  63:                  -592.24797850 au
    Multiplicity: Singlet
    Trans. Mom.:  0.0070 X  -0.0086 Y   0.0036 Z
    Strength   :     0.0017713773
    D(    3) --> V(   63) amplitude =  0.9588

 Excited state  64: excitation energy (eV) =     532.9788
 Total energy for state  64:                  -592.23866865 au
    Multiplicity: Singlet
    Trans. Mom.: -0.0027 X  -0.0101 Y  -0.0082 Z
    Strength   :     0.0022939805
    D(    3) --> V(   64) amplitude = -0.5486
    D(    3) --> V(   65) amplitude =  0.7784

 Excited state  65: excitation energy (eV) =     533.1152
 Total energy for state  65:                  -592.23365375 au
    Multiplicity: Singlet
    Trans. Mom.:  0.0015 X  -0.0050 Y  -0.0051 Z
    Strength   :     0.0006923965
    D(    3) --> V(   64) amplitude =  0.7825
    D(    3) --> V(   65) amplitude =  0.4933

 Excited state  66: excitation energy (eV) =     533.3288
 Total energy for state  66:                  -592.22580402 au
    Multiplicity: Singlet
    Trans. Mom.:  0.0086 X   0.0046 Y  -0.0106 Z
    Strength   :     0.0027150883
    D(    3) --> V(   64) amplitude = -0.2248
    D(    3) --> V(   65) amplitude = -0.2262
    D(    3) --> V(   66) amplitude =  0.7663
    D(    3) --> V(   67) amplitude =  0.5040

 Excited state  67: excitation energy (eV) =     533.3991
 Total energy for state  67:                  -592.22322294 au
    Multiplicity: Singlet
    Trans. Mom.:  0.0053 X  -0.0065 Y  -0.0034 Z
    Strength   :     0.0010734565
    D(    3) --> V(   66) amplitude = -0.5439
    D(    3) --> V(   67) amplitude =  0.7899

 Excited state  68: excitation energy (eV) =     533.6254
 Total energy for state  68:                  -592.21490739 au
    Multiplicity: Singlet
    Trans. Mom.:  0.0074 X  -0.0071 Y   0.0071 Z
    Strength   :     0.0020265838
    D(    3) --> V(   68) amplitude =  0.9344

 Excited state  69: excitation energy (eV) =     534.0262
 Total energy for state  69:                  -592.20017668 au
    Multiplicity: Singlet
    Trans. Mom.:  0.0071 X   0.0070 Y  -0.0016 Z
    Strength   :     0.0013487694
    D(    3) --> V(   69) amplitude =  0.9328
    D(    3) --> V(   70) amplitude = -0.2844

 Excited state  70: excitation energy (eV) =     534.0318
 Total energy for state  70:                  -592.19996918 au
    Multiplicity: Singlet
    Trans. Mom.:  0.0033 X  -0.0052 Y  -0.0031 Z
    Strength   :     0.0006194716
    D(    3) --> V(   69) amplitude =  0.2912
    D(    3) --> V(   70) amplitude =  0.8887

 Excited state  71: excitation energy (eV) =     534.6222
 Total energy for state  71:                  -592.17827598 au
    Multiplicity: Singlet
    Trans. Mom.: -0.0048 X  -0.0007 Y   0.0046 Z
    Strength   :     0.0005842724
    D(    3) --> V(   72) amplitude =  0.9453

 Excited state  72: excitation energy (eV) =     534.6449
 Total energy for state  72:                  -592.17743995 au
    Multiplicity: Singlet
    Trans. Mom.: -0.0023 X   0.0010 Y  -0.0013 Z
    Strength   :     0.0001052791
    D(    3) --> V(   71) amplitude =  0.9510
    D(    3) --> V(   72) amplitude = -0.2138

 Excited state  73: excitation energy (eV) =     534.9214
 Total energy for state  73:                  -592.16727995 au
    Multiplicity: Singlet
    Trans. Mom.:  0.0011 X   0.0035 Y  -0.0064 Z
    Strength   :     0.0007236143
    D(    3) --> V(   73) amplitude =  0.9725

 Excited state  74: excitation energy (eV) =     535.4373
 Total energy for state  74:                  -592.14832133 au
    Multiplicity: Singlet
    Trans. Mom.: -0.0031 X  -0.0012 Y   0.0031 Z
    Strength   :     0.0002662063
    D(    3) --> V(   74) amplitude =  0.9398
    D(    3) --> V(   75) amplitude = -0.2408

 Excited state  75: excitation energy (eV) =     535.5324
 Total energy for state  75:                  -592.14482389 au
    Multiplicity: Singlet
    Trans. Mom.:  0.0047 X  -0.0035 Y   0.0052 Z
    Strength   :     0.0008183130
    D(    3) --> V(   74) amplitude =  0.2158
    D(    3) --> V(   75) amplitude =  0.9249
    D(    3) --> V(   76) amplitude = -0.2340

 Excited state  76: excitation energy (eV) =     535.6399
 Total energy for state  76:                  -592.14087508 au
    Multiplicity: Singlet
    Trans. Mom.: -0.0016 X   0.0051 Y   0.0030 Z
    Strength   :     0.0004975954
    D(    3) --> V(   76) amplitude =  0.9182

 Excited state  77: excitation energy (eV) =     536.1602
 Total energy for state  77:                  -592.12175397 au
    Multiplicity: Singlet
    Trans. Mom.:  0.0057 X  -0.0067 Y  -0.0035 Z
    Strength   :     0.0011717071
    D(    3) --> V(   77) amplitude =  0.7809
    D(    3) --> V(   78) amplitude =  0.5897

 Excited state  78: excitation energy (eV) =     536.1657
 Total energy for state  78:                  -592.12155041 au
    Multiplicity: Singlet
    Trans. Mom.:  0.0099 X  -0.0015 Y   0.0019 Z
    Strength   :     0.0013730945
    D(    3) --> V(   77) amplitude = -0.5969
    D(    3) --> V(   78) amplitude =  0.7657

 Excited state  79: excitation energy (eV) =     536.4076
 Total energy for state  79:                  -592.11266044 au
    Multiplicity: Singlet
    Trans. Mom.:  0.0091 X  -0.0071 Y  -0.0064 Z
    Strength   :     0.0022813164
    D(    3) --> V(   79) amplitude =  0.9160
    D(    3) --> V(   82) amplitude = -0.2267

 Excited state  80: excitation energy (eV) =     536.6215
 Total energy for state  80:                  -592.10480290 au
    Multiplicity: Singlet
    Trans. Mom.:  0.0018 X   0.0066 Y  -0.0013 Z
    Strength   :     0.0006461460
    D(    3) --> V(   80) amplitude =  0.9393
    D(    3) --> V(   81) amplitude = -0.2284

 Excited state  81: excitation energy (eV) =     536.8364
 Total energy for state  81:                  -592.09690514 au
    Multiplicity: Singlet
    Trans. Mom.: -0.0021 X   0.0001 Y   0.0019 Z
    Strength   :     0.0001046609
    D(    3) --> V(   79) amplitude =  0.2637
    D(    3) --> V(   80) amplitude =  0.2619
    D(    3) --> V(   81) amplitude =  0.8416
    D(    3) --> V(   82) amplitude =  0.3652

 Excited state  82: excitation energy (eV) =     536.8938
 Total energy for state  82:                  -592.09479373 au
    Multiplicity: Singlet
    Trans. Mom.: -0.0067 X   0.0018 Y  -0.0009 Z
    Strength   :     0.0006364295
    D(    3) --> V(   81) amplitude = -0.4201
    D(    3) --> V(   82) amplitude =  0.8741

 Excited state  83: excitation energy (eV) =     537.4277
 Total energy for state  83:                  -592.07517249 au
    Multiplicity: Singlet
    Trans. Mom.:  0.0007 X   0.0034 Y  -0.0007 Z
    Strength   :     0.0001663741
    D(    3) --> V(   83) amplitude =  0.9644

 Excited state  84: excitation energy (eV) =     537.6973
 Total energy for state  84:                  -592.06526629 au
    Multiplicity: Singlet
    Trans. Mom.:  0.0025 X   0.0024 Y  -0.0027 Z
    Strength   :     0.0002588320
    D(    3) --> V(   84) amplitude =  0.9711

 Excited state  85: excitation energy (eV) =     537.7907
 Total energy for state  85:                  -592.06183548 au
    Multiplicity: Singlet
    Trans. Mom.: -0.0037 X  -0.0039 Y  -0.0041 Z
    Strength   :     0.0006022947
    D(    3) --> V(   85) amplitude =  0.9078
    D(    3) --> V(   86) amplitude =  0.2812

 Excited state  86: excitation energy (eV) =     537.9366
 Total energy for state  86:                  -592.05647130 au
    Multiplicity: Singlet
    Trans. Mom.: -0.0095 X  -0.0037 Y   0.0010 Z
    Strength   :     0.0013836328
    D(    3) --> V(   85) amplitude = -0.2972
    D(    3) --> V(   86) amplitude =  0.8754
    D(    3) --> V(   87) amplitude =  0.2771

 Excited state  87: excitation energy (eV) =     538.2394
 Total energy for state  87:                  -592.04534429 au
    Multiplicity: Singlet
    Trans. Mom.: -0.0003 X   0.0064 Y   0.0023 Z
    Strength   :     0.0006212480
    D(    3) --> V(   86) amplitude = -0.2877
    D(    3) --> V(   87) amplitude =  0.9270

 Excited state  88: excitation energy (eV) =     538.3996
 Total energy for state  88:                  -592.03945706 au
    Multiplicity: Singlet
    Trans. Mom.:  0.0077 X   0.0034 Y   0.0084 Z
    Strength   :     0.0018687677
    D(    3) --> V(   88) amplitude =  0.9225
    D(    3) --> V(   89) amplitude =  0.2390

 Excited state  89: excitation energy (eV) =     538.6769
 Total energy for state  89:                  -592.02926842 au
    Multiplicity: Singlet
    Trans. Mom.:  0.0049 X   0.0104 Y   0.0031 Z
    Strength   :     0.0018840747
    D(    3) --> V(   88) amplitude = -0.2551
    D(    3) --> V(   89) amplitude =  0.9420

 Excited state  90: excitation energy (eV) =     538.8201
 Total energy for state  90:                  -592.02400398 au
    Multiplicity: Singlet
    Trans. Mom.:  0.0052 X   0.0044 Y  -0.0047 Z
    Strength   :     0.0009050434
    D(    3) --> V(   90) amplitude =  0.8874
    D(    3) --> V(   91) amplitude =  0.3341
    D(    3) --> V(   92) amplitude =  0.2638

 Excited state  91: excitation energy (eV) =     539.0577
 Total energy for state  91:                  -592.01527081 au
    Multiplicity: Singlet
    Trans. Mom.:  0.0047 X  -0.0003 Y  -0.0023 Z
    Strength   :     0.0003627079
    D(    3) --> V(   90) amplitude = -0.4254
    D(    3) --> V(   91) amplitude =  0.7627
    D(    3) --> V(   92) amplitude =  0.4346

 Excited state  92: excitation energy (eV) =     539.1802
 Total energy for state  92:                  -592.01077003 au
    Multiplicity: Singlet
    Trans. Mom.:  0.0016 X  -0.0008 Y   0.0010 Z
    Strength   :     0.0000556573
    D(    3) --> V(   91) amplitude = -0.5006
    D(    3) --> V(   92) amplitude =  0.8479

 Excited state  93: excitation energy (eV) =     539.4141
 Total energy for state  93:                  -592.00217499 au
    Multiplicity: Singlet
    Trans. Mom.: -0.0005 X   0.0045 Y   0.0075 Z
    Strength   :     0.0010202210
    D(    3) --> V(   93) amplitude =  0.9537

 Excited state  94: excitation energy (eV) =     539.5542
 Total energy for state  94:                  -591.99702538 au
    Multiplicity: Singlet
    Trans. Mom.:  0.0058 X   0.0034 Y   0.0009 Z
    Strength   :     0.0005996783
    D(    3) --> V(   94) amplitude =  0.8646
    D(    3) --> V(   95) amplitude =  0.3460

 Excited state  95: excitation energy (eV) =     539.7760
 Total energy for state  95:                  -591.98887545 au
    Multiplicity: Singlet
    Trans. Mom.: -0.0000 X  -0.0029 Y  -0.0015 Z
    Strength   :     0.0001369973
    D(    3) --> V(   94) amplitude = -0.3465
    D(    3) --> V(   95) amplitude =  0.8971

 Excited state  96: excitation energy (eV) =     540.0269
 Total energy for state  96:                  -591.97965466 au
    Multiplicity: Singlet
    Trans. Mom.:  0.0018 X  -0.0033 Y   0.0029 Z
    Strength   :     0.0002963160
    D(    3) --> V(   95) amplitude = -0.2135
    D(    3) --> V(   96) amplitude =  0.9417

 Excited state  97: excitation energy (eV) =     540.1606
 Total energy for state  97:                  -591.97474126 au
    Multiplicity: Singlet
    Trans. Mom.: -0.0088 X   0.0005 Y   0.0063 Z
    Strength   :     0.0015576786
    D(    3) --> V(   97) amplitude =  0.9359

 Excited state  98: excitation energy (eV) =     540.5417
 Total energy for state  98:                  -591.96073698 au
    Multiplicity: Singlet
    Trans. Mom.:  0.0033 X  -0.0012 Y  -0.0045 Z
    Strength   :     0.0004290768
    D(    3) --> V(   98) amplitude =  0.9470
    D(    3) --> V(  100) amplitude = -0.2231

 Excited state  99: excitation energy (eV) =     540.7406
 Total energy for state  99:                  -591.95342605 au
    Multiplicity: Singlet
    Trans. Mom.: -0.0041 X   0.0020 Y   0.0093 Z
    Strength   :     0.0014208256
    D(    3) --> V(   98) amplitude =  0.2446
    D(    3) --> V(   99) amplitude =  0.2833
    D(    3) --> V(  100) amplitude =  0.8500
    D(    3) --> V(  101) amplitude = -0.2490

 Excited state 100: excitation energy (eV) =     540.7927
 Total energy for state 100:                  -591.95151148 au
    Multiplicity: Singlet
    Trans. Mom.:  0.0023 X   0.0008 Y  -0.0075 Z
    Strength   :     0.0008306998
    D(    3) --> V(   99) amplitude =  0.8701
    D(    3) --> V(  100) amplitude = -0.3440

 Excited state 101: excitation energy (eV) =     540.9284
 Total energy for state 101:                  -591.94652603 au
    Multiplicity: Singlet
    Trans. Mom.: -0.0015 X   0.0140 Y  -0.0025 Z
    Strength   :     0.0026982985
    D(    3) --> V(   99) amplitude =  0.2776
    D(    3) --> V(  101) amplitude =  0.9100

 Excited state 102: excitation energy (eV) =     541.1849
 Total energy for state 102:                  -591.93709759 au
    Multiplicity: Singlet
    Trans. Mom.: -0.0045 X   0.0052 Y  -0.0048 Z
    Strength   :     0.0009379108
    D(    3) --> V(   99) amplitude = -0.2172
    D(    3) --> V(  102) amplitude =  0.8765
    D(    3) --> V(  103) amplitude = -0.2571

 Excited state 103: excitation energy (eV) =     541.3832
 Total energy for state 103:                  -591.92981292 au
    Multiplicity: Singlet
    Trans. Mom.: -0.0017 X  -0.0053 Y  -0.0036 Z
    Strength   :     0.0005739439
    D(    3) --> V(  102) amplitude =  0.3102
    D(    3) --> V(  103) amplitude =  0.8960

 Excited state 104: excitation energy (eV) =     541.6005
 Total energy for state 104:                  -591.92182799 au
    Multiplicity: Singlet
    Trans. Mom.:  0.0135 X   0.0065 Y  -0.0027 Z
    Strength   :     0.0030558687
    D(    3) --> V(  104) amplitude =  0.8836
    D(    3) --> V(  105) amplitude =  0.2160
    D(    3) --> V(  106) amplitude = -0.2947

 Excited state 105: excitation energy (eV) =     541.8003
 Total energy for state 105:                  -591.91448348 au
    Multiplicity: Singlet
    Trans. Mom.:  0.0010 X  -0.0057 Y   0.0023 Z
    Strength   :     0.0005160930
    D(    3) --> V(  104) amplitude = -0.3531
    D(    3) --> V(  105) amplitude =  0.6918
    D(    3) --> V(  106) amplitude = -0.5211

 Excited state 106: excitation energy (eV) =     541.8820
 Total energy for state 106:                  -591.91148093 au
    Multiplicity: Singlet
    Trans. Mom.: -0.0039 X   0.0022 Y   0.0001 Z
    Strength   :     0.0002692718
    D(    3) --> V(  105) amplitude =  0.6681
    D(    3) --> V(  106) amplitude =  0.7035

 Excited state 107: excitation energy (eV) =     542.0992
 Total energy for state 107:                  -591.90350034 au
    Multiplicity: Singlet
    Trans. Mom.: -0.0080 X  -0.0024 Y  -0.0115 Z
    Strength   :     0.0026769426
    D(    3) --> V(  107) amplitude =  0.9182
    D(    3) --> V(  108) amplitude =  0.2500

 Excited state 108: excitation energy (eV) =     542.2895
 Total energy for state 108:                  -591.89650657 au
    Multiplicity: Singlet
    Trans. Mom.: -0.0034 X  -0.0081 Y  -0.0008 Z
    Strength   :     0.0010417716
    D(    3) --> V(  108) amplitude =  0.7281
    D(    3) --> V(  109) amplitude = -0.4658
    D(    3) --> V(  110) amplitude =  0.3653

 Excited state 109: excitation energy (eV) =     542.3888
 Total energy for state 109:                  -591.89285642 au
    Multiplicity: Singlet
    Trans. Mom.: -0.0052 X   0.0065 Y  -0.0040 Z
    Strength   :     0.0011305161
    D(    3) --> V(  107) amplitude = -0.3186
    D(    3) --> V(  108) amplitude =  0.5498
    D(    3) --> V(  109) amplitude =  0.7067

 Excited state 110: excitation energy (eV) =     542.6011
 Total energy for state 110:                  -591.88505525 au
    Multiplicity: Singlet
    Trans. Mom.:  0.0039 X  -0.0033 Y  -0.0023 Z
    Strength   :     0.0004174383
    D(    3) --> V(  109) amplitude =  0.4445
    D(    3) --> V(  110) amplitude =  0.6127
    D(    3) --> V(  111) amplitude = -0.5316

 Excited state 111: excitation energy (eV) =     542.7843
 Total energy for state 111:                  -591.87832105 au
    Multiplicity: Singlet
    Trans. Mom.:  0.0027 X   0.0024 Y  -0.0018 Z
    Strength   :     0.0002163000
    D(    3) --> V(  110) amplitude =  0.5858
    D(    3) --> V(  111) amplitude =  0.7699

 Excited state 112: excitation energy (eV) =     542.9884
 Total energy for state 112:                  -591.87082212 au
    Multiplicity: Singlet
    Trans. Mom.:  0.0008 X   0.0007 Y   0.0010 Z
    Strength   :     0.0000266907
    D(    3) --> V(  112) amplitude =  0.9710

 Excited state 113: excitation energy (eV) =     543.0723
 Total energy for state 113:                  -591.86773996 au
    Multiplicity: Singlet
    Trans. Mom.: -0.0044 X   0.0014 Y  -0.0001 Z
    Strength   :     0.0002866196
    D(    3) --> V(  113) amplitude =  0.9432
    D(    3) --> V(  114) amplitude = -0.2301

 Excited state 114: excitation energy (eV) =     543.3462
 Total energy for state 114:                  -591.85767294 au
    Multiplicity: Singlet
    Trans. Mom.:  0.0100 X  -0.0044 Y   0.0068 Z
    Strength   :     0.0021957099
    D(    3) --> V(  113) amplitude =  0.2501
    D(    3) --> V(  114) amplitude =  0.9529

 Excited state 115: excitation energy (eV) =     543.7456
 Total energy for state 115:                  -591.84299601 au
    Multiplicity: Singlet
    Trans. Mom.:  0.0062 X   0.0017 Y   0.0063 Z
    Strength   :     0.0010707792
    D(    3) --> V(  115) amplitude =  0.9663

 Excited state 116: excitation energy (eV) =     543.9194
 Total energy for state 116:                  -591.83660768 au
    Multiplicity: Singlet
    Trans. Mom.: -0.0106 X  -0.0011 Y  -0.0048 Z
    Strength   :     0.0018311395
    D(    3) --> V(  116) amplitude =  0.9615

 Excited state 117: excitation energy (eV) =     544.3137
 Total energy for state 117:                  -591.82211631 au
    Multiplicity: Singlet
    Trans. Mom.:  0.0038 X   0.0083 Y  -0.0026 Z
    Strength   :     0.0012121437
    D(    3) --> V(  117) amplitude =  0.8287
    D(    3) --> V(  118) amplitude = -0.5332

 Excited state 118: excitation energy (eV) =     544.6422
 Total energy for state 118:                  -591.81004629 au
    Multiplicity: Singlet
    Trans. Mom.: -0.0078 X  -0.0018 Y  -0.0059 Z
    Strength   :     0.0013215190
    D(    3) --> V(  117) amplitude =  0.5312
    D(    3) --> V(  118) amplitude =  0.8241

 Excited state 119: excitation energy (eV) =     545.1747
 Total energy for state 119:                  -591.79047585 au
    Multiplicity: Singlet
    Trans. Mom.: -0.0025 X   0.0001 Y  -0.0082 Z
    Strength   :     0.0009838089
    D(    3) --> V(  119) amplitude =  0.2642
    D(    3) --> V(  120) amplitude =  0.9348

 Excited state 120: excitation energy (eV) =     545.2485
 Total energy for state 120:                  -591.78776511 au
    Multiplicity: Singlet
    Trans. Mom.:  0.0054 X   0.0041 Y   0.0067 Z
    Strength   :     0.0012163910
    D(    3) --> V(  119) amplitude =  0.9447
    D(    3) --> V(  120) amplitude = -0.2598

 Excited state 121: excitation energy (eV) =     545.6848
 Total energy for state 121:                  -591.77173056 au
    Multiplicity: Singlet
    Trans. Mom.: -0.0053 X   0.0060 Y   0.0007 Z
    Strength   :     0.0008626897
    D(    3) --> V(  121) amplitude =  0.8638
    D(    3) --> V(  122) amplitude =  0.4120

 Excited state 122: excitation energy (eV) =     545.8790
 Total energy for state 122:                  -591.76459371 au
    Multiplicity: Singlet
    Trans. Mom.:  0.0038 X   0.0084 Y  -0.0053 Z
    Strength   :     0.0015025810
    D(    3) --> V(  121) amplitude = -0.3845
    D(    3) --> V(  122) amplitude =  0.8640

 Excited state 123: excitation energy (eV) =     546.1033
 Total energy for state 123:                  -591.75635192 au
    Multiplicity: Singlet
    Trans. Mom.:  0.0100 X   0.0036 Y   0.0007 Z
    Strength   :     0.0015201150
    D(    3) --> V(  121) amplitude =  0.2338
    D(    3) --> V(  123) amplitude =  0.9488

 Excited state 124: excitation energy (eV) =     546.3979
 Total energy for state 124:                  -591.74552620 au
    Multiplicity: Singlet
    Trans. Mom.: -0.0097 X   0.0069 Y  -0.0017 Z
    Strength   :     0.0019282665
    D(    3) --> V(  124) amplitude =  0.7507
    D(    3) --> V(  125) amplitude = -0.6006

 Excited state 125: excitation energy (eV) =     546.7313
 Total energy for state 125:                  -591.73327363 au
    Multiplicity: Singlet
    Trans. Mom.:  0.0017 X   0.0010 Y  -0.0004 Z
    Strength   :     0.0000559023
    D(    3) --> V(  124) amplitude =  0.6201
    D(    3) --> V(  125) amplitude =  0.7576

 Excited state 126: excitation energy (eV) =     546.9002
 Total energy for state 126:                  -591.72706574 au
    Multiplicity: Singlet
    Trans. Mom.:  0.0013 X  -0.0021 Y   0.0004 Z
    Strength   :     0.0000839042
    D(    3) --> V(  126) amplitude =  0.9628

 Excited state 127: excitation energy (eV) =     547.1169
 Total energy for state 127:                  -591.71910395 au
    Multiplicity: Singlet
    Trans. Mom.:  0.0015 X   0.0025 Y  -0.0078 Z
    Strength   :     0.0009297527
    D(    3) --> V(  127) amplitude =  0.8848
    D(    3) --> V(  128) amplitude = -0.3713

 Excited state 128: excitation energy (eV) =     547.3710
 Total energy for state 128:                  -591.70976264 au
    Multiplicity: Singlet
    Trans. Mom.: -0.0035 X   0.0003 Y   0.0088 Z
    Strength   :     0.0012059473
    D(    3) --> V(  127) amplitude =  0.3996
    D(    3) --> V(  128) amplitude =  0.8784

 Excited state 129: excitation energy (eV) =     547.7446
 Total energy for state 129:                  -591.69603526 au
    Multiplicity: Singlet
    Trans. Mom.:  0.0008 X  -0.0091 Y   0.0035 Z
    Strength   :     0.0012788986
    D(    3) --> V(  128) amplitude = -0.2371
    D(    3) --> V(  129) amplitude =  0.9314
    D(    3) --> V(  130) amplitude = -0.2514

 Excited state 130: excitation energy (eV) =     547.8404
 Total energy for state 130:                  -591.69251487 au
    Multiplicity: Singlet
    Trans. Mom.:  0.0088 X   0.0048 Y   0.0058 Z
    Strength   :     0.0018037880
    D(    3) --> V(  129) amplitude =  0.2642
    D(    3) --> V(  130) amplitude =  0.9451

 Excited state 131: excitation energy (eV) =     548.2072
 Total energy for state 131:                  -591.67903453 au
    Multiplicity: Singlet
    Trans. Mom.:  0.0072 X   0.0063 Y  -0.0072 Z
    Strength   :     0.0019199517
    D(    3) --> V(  131) amplitude =  0.9662

 Excited state 132: excitation energy (eV) =     548.5009
 Total energy for state 132:                  -591.66824153 au
    Multiplicity: Singlet
    Trans. Mom.:  0.0003 X  -0.0015 Y  -0.0016 Z
    Strength   :     0.0000641466
    D(    3) --> V(  132) amplitude =  0.9767

 Excited state 133: excitation energy (eV) =     548.7003
 Total energy for state 133:                  -591.66091177 au
    Multiplicity: Singlet
    Trans. Mom.:  0.0034 X   0.0004 Y   0.0012 Z
    Strength   :     0.0001766226
    D(    3) --> V(  133) amplitude =  0.9752

 Excited state 134: excitation energy (eV) =     548.9695
 Total energy for state 134:                  -591.65102181 au
    Multiplicity: Singlet
    Trans. Mom.: -0.0014 X  -0.0071 Y   0.0057 Z
    Strength   :     0.0011305705
    D(    3) --> V(  135) amplitude =  0.9221
    D(    3) --> V(  136) amplitude = -0.2147

 Excited state 135: excitation energy (eV) =     549.1369
 Total energy for state 135:                  -591.64486832 au
    Multiplicity: Singlet
    Trans. Mom.:  0.0041 X   0.0028 Y  -0.0013 Z
    Strength   :     0.0003517567
    D(    3) --> V(  134) amplitude =  0.8775
    D(    3) --> V(  136) amplitude = -0.3319

 Excited state 136: excitation energy (eV) =     549.1876
 Total energy for state 136:                  -591.64300739 au
    Multiplicity: Singlet
    Trans. Mom.: -0.0002 X  -0.0052 Y  -0.0004 Z
    Strength   :     0.0003617792
    D(    3) --> V(  134) amplitude = -0.4001
    D(    3) --> V(  135) amplitude = -0.3170
    D(    3) --> V(  136) amplitude = -0.4495
    D(    3) --> V(  137) amplitude =  0.6430
    D(    3) --> V(  138) amplitude = -0.2271

 Excited state 137: excitation energy (eV) =     549.3799
 Total energy for state 137:                  -591.63593758 au
    Multiplicity: Singlet
    Trans. Mom.: -0.0011 X  -0.0018 Y  -0.0102 Z
    Strength   :     0.0014717052
    D(    3) --> V(  136) amplitude =  0.6150
    D(    3) --> V(  137) amplitude =  0.6650
    D(    3) --> V(  138) amplitude =  0.2627

 Excited state 138: excitation energy (eV) =     549.6053
 Total energy for state 138:                  -591.62765681 au
    Multiplicity: Singlet
    Trans. Mom.:  0.0020 X   0.0022 Y  -0.0053 Z
    Strength   :     0.0004940737
    D(    3) --> V(  136) amplitude = -0.4771
    D(    3) --> V(  138) amplitude =  0.7511
    D(    3) --> V(  139) amplitude = -0.3833

 Excited state 139: excitation energy (eV) =     549.7332
 Total energy for state 139:                  -591.62295597 au
    Multiplicity: Singlet
    Trans. Mom.:  0.0008 X  -0.0037 Y  -0.0023 Z
    Strength   :     0.0002621035
    D(    3) --> V(  138) amplitude =  0.4291
    D(    3) --> V(  139) amplitude =  0.8809

 Excited state 140: excitation energy (eV) =     549.7948
 Total energy for state 140:                  -591.62069176 au
    Multiplicity: Singlet
    Trans. Mom.: -0.0045 X  -0.0100 Y  -0.0083 Z
    Strength   :     0.0025564563
    D(    3) --> V(  138) amplitude = -0.3094
    D(    3) --> V(  140) amplitude =  0.8451
    D(    3) --> V(  142) amplitude =  0.3467

 Excited state 141: excitation energy (eV) =     550.0258
 Total energy for state 141:                  -591.61220374 au
    Multiplicity: Singlet
    Trans. Mom.: -0.0074 X  -0.0109 Y   0.0038 Z
    Strength   :     0.0025556171
    D(    3) --> V(  140) amplitude = -0.3988
    D(    3) --> V(  142) amplitude =  0.8556
    D(    3) --> V(  143) amplitude = -0.2352

 Excited state 142: excitation energy (eV) =     550.0762
 Total energy for state 142:                  -591.61035192 au
    Multiplicity: Singlet
    Trans. Mom.: -0.0009 X   0.0020 Y   0.0024 Z
    Strength   :     0.0001413120
    D(    3) --> V(  141) amplitude =  0.9401
    D(    3) --> V(  143) amplitude = -0.2381

 Excited state 143: excitation energy (eV) =     550.2550
 Total energy for state 143:                  -591.60377941 au
    Multiplicity: Singlet
    Trans. Mom.: -0.0045 X  -0.0024 Y   0.0054 Z
    Strength   :     0.0007381179
    D(    3) --> V(  141) amplitude =  0.2830
    D(    3) --> V(  143) amplitude =  0.8883

 Excited state 144: excitation energy (eV) =     550.6109
 Total energy for state 144:                  -591.59069983 au
    Multiplicity: Singlet
    Trans. Mom.: -0.0018 X   0.0038 Y  -0.0084 Z
    Strength   :     0.0011890646
    D(    3) --> V(  144) amplitude =  0.8815
    D(    3) --> V(  145) amplitude =  0.3099

 Excited state 145: excitation energy (eV) =     550.7555
 Total energy for state 145:                  -591.58538766 au
    Multiplicity: Singlet
    Trans. Mom.:  0.0036 X  -0.0002 Y  -0.0094 Z
    Strength   :     0.0013693523
    D(    3) --> V(  144) amplitude = -0.3110
    D(    3) --> V(  145) amplitude =  0.8926

 Excited state 146: excitation energy (eV) =     550.8761
 Total energy for state 146:                  -591.58095500 au
    Multiplicity: Singlet
    Trans. Mom.:  0.0003 X   0.0011 Y  -0.0002 Z
    Strength   :     0.0000173474
    D(    3) --> V(  146) amplitude =  0.9724

 Excited state 147: excitation energy (eV) =     551.1422
 Total energy for state 147:                  -591.57117446 au
    Multiplicity: Singlet
    Trans. Mom.:  0.0007 X  -0.0006 Y   0.0108 Z
    Strength   :     0.0015812239
    D(    3) --> V(  145) amplitude =  0.2212
    D(    3) --> V(  147) amplitude =  0.8002
    D(    3) --> V(  148) amplitude =  0.4217

 Excited state 148: excitation energy (eV) =     551.2685
 Total energy for state 148:                  -591.56653323 au
    Multiplicity: Singlet
    Trans. Mom.:  0.0118 X  -0.0131 Y   0.0067 Z
    Strength   :     0.0048279869
    D(    3) --> V(  147) amplitude = -0.4981
    D(    3) --> V(  148) amplitude =  0.7685
    D(    3) --> V(  150) amplitude =  0.2735

 Excited state 149: excitation energy (eV) =     551.7177
 Total energy for state 149:                  -591.55002677 au
    Multiplicity: Singlet
    Trans. Mom.:  0.0046 X   0.0088 Y   0.0051 Z
    Strength   :     0.0016720148
    D(    3) --> V(  149) amplitude =  0.8928
    D(    3) --> V(  152) amplitude = -0.3260

 Excited state 150: excitation energy (eV) =     551.7967
 Total energy for state 150:                  -591.54712349 au
    Multiplicity: Singlet
    Trans. Mom.:  0.0064 X  -0.0099 Y   0.0037 Z
    Strength   :     0.0020694176
    D(    3) --> V(  148) amplitude = -0.3803
    D(    3) --> V(  150) amplitude =  0.8594
    D(    3) --> V(  152) amplitude =  0.2740

 Excited state 151: excitation energy (eV) =     552.0027
 Total energy for state 151:                  -591.53955309 au
    Multiplicity: Singlet
    Trans. Mom.:  0.0028 X  -0.0116 Y  -0.0153 Z
    Strength   :     0.0050690612
    D(    3) --> V(  149) amplitude =  0.3280
    D(    3) --> V(  150) amplitude = -0.2687
    D(    3) --> V(  151) amplitude =  0.6283
    D(    3) --> V(  152) amplitude =  0.4426
    D(    3) --> V(  153) amplitude =  0.3477

 ---------------------------------------------------
  SETman timing summary (seconds)
  CPU time           1062928.61s
  System time              0.07s
  Wall time           266355.94s
================================================================================
                             Excited State Analysis
================================================================================

  Ground State (Reference) :
  -------------------------
    NOs
      Occupation of frontier NOs:
         0.0000   0.0000   2.0000   2.0000
      Number of electrons: 80.000000
      Number of unpaired electrons: n_u =  0.00000, n_u,nl =  0.00000
    
    Mulliken Population Analysis (State DM)
    Atom      Charge (e)
    --------------------
     1 O       -0.798585
     2 H        0.345760
     3 H        0.400148
     4 O       -0.675586
     5 H        0.379909
     6 H        0.301560
     7 O       -0.643364
     8 H        0.338362
     9 H        0.338833
    10 O       -0.730663
    11 H        0.367892
    12 H        0.365073
    13 O       -0.656361
    14 H        0.307088
    15 H        0.355670
    16 O       -0.630963
    17 H        0.370669
    18 H        0.255303
    19 O       -0.598028
    20 H        0.287297
    21 H        0.305360
    22 O       -0.668248
    23 H        0.298034
    24 H        0.384837
    --------------------
    Sum:        0.000000
    
    Multipole moment analysis of the density matrix
      Molecular charge:                      0.000000
      Number of electrons:                   80.000000
        Center of electronic charge [Ang]: [  0.000128,  -0.005689,   0.001403]
      Total nuclear charge:                  80.000000
        Center of nuclear charge [Ang]:    [ -0.007497,  -0.024990,   0.008726]
      Dipole moment [D]:                     8.456129
        Cartesian components [D]:          [ -2.929914,  -7.416408,   2.814004]
      RMS size of the density [Ang]:         3.174674
        Cartesian components [Ang]:        [  2.358879,   1.486950,   1.517637]
    

  ----------------------------------------------------------------------------
                  Analysis of Unrelaxed Density Matrices
  ----------------------------------------------------------------------------

  Singlet 1 :
  -------------------------
    NOs
      Occupation of frontier NOs:
         0.0000   1.0000   1.0000   2.0000
      Number of electrons: 80.000000
      Number of unpaired electrons: n_u =  2.00000, n_u,nl =  2.00000
      NO participation ratio (PR_NO):  2.000000
    
    NDOs
      Leading detachment eigenvalues:
        -1.0000  -0.0000
      Leading attachment eigenvalues:
         1.0000   0.0000
      Number of detached / attached electrons: p_D =  1.0000, p_A =  1.0000
      Number of involved orbitals: PR_D =  1.000000, PR_A =  1.000000
    
    Mulliken Population Analysis (State/Difference DM)
    Atom      Charge (e)              h+              e-           Del q
    --------------------------------------------------------------------
     1 O        0.163185        0.992203       -0.030433        0.961770
     2 H        0.361447        0.004006        0.011681        0.015686
     3 H        0.363402        0.003768       -0.040513       -0.036746
     4 O       -0.668205       -0.000000        0.007381        0.007381
     5 H        0.419493        0.000000        0.039584        0.039584
     6 H        0.217173       -0.000000       -0.084387       -0.084387
     7 O       -0.623303        0.000000        0.020061        0.020062
     8 H       -0.084683        0.000000       -0.423045       -0.423045
     9 H        0.016254        0.000000       -0.322579       -0.322579
    10 O       -0.730146       -0.000000        0.000517        0.000517
    11 H        0.352926       -0.000000       -0.014966       -0.014966
    12 H        0.365702       -0.000000        0.000629        0.000629
    13 O       -0.651132        0.000000        0.005229        0.005229
    14 H        0.299312       -0.000000       -0.007776       -0.007776
    15 H        0.331603        0.000014       -0.024081       -0.024067
    16 O       -0.636891        0.000001       -0.005929       -0.005928
    17 H        0.377862        0.000001        0.007192        0.007193
    18 H        0.178827        0.000000       -0.076476       -0.076476
    19 O       -0.596831       -0.000000        0.001197        0.001197
    20 H        0.288151       -0.000000        0.000854        0.000854
    21 H        0.283315        0.000000       -0.022045       -0.022045
    22 O       -0.682773        0.000005       -0.014530       -0.014525
    23 H        0.237610        0.000001       -0.060425       -0.060424
    24 H        0.417701        0.000002        0.032861        0.032863
    --------------------------------------------------------------------
    Sum:        0.000000        1.000000       -1.000000        0.000000
    
    Multipole moment analysis of the density matrix
      Molecular charge:                      0.000000
      Number of electrons:                   80.000000
        Center of electronic charge [Ang]: [ -0.012915,  -0.035887,  -0.000246]
      Total nuclear charge:                  80.000000
        Center of nuclear charge [Ang]:    [ -0.007497,  -0.024990,   0.008726]
      Dipole moment [D]:                     5.810053
        Cartesian components [D]:          [  2.082164,   4.187344,   3.447819]
      RMS size of the density [Ang]:         3.198385
        Cartesian components [Ang]:        [  2.365117,   1.520125,   1.524829]
    
    Exciton analysis of the difference density matrix
      <r_h> [Ang]:                  [  0.789454,   0.037216,   0.805433]
      <r_e> [Ang]:                  [ -0.254033,  -2.378619,   0.673477]
      |<r_e - r_h>| [Ang]:            2.634869
      Hole size [Ang]:                0.122938
        Cartesian components [Ang]: [  0.070904,   0.070914,   0.071117]
      Electron size [Ang]:            2.704616
        Cartesian components [Ang]: [  1.713076,   1.558745,   1.396650]

  Singlet 2 :
  -------------------------
    NOs
      Occupation of frontier NOs:
         0.0000   1.0000   1.0000   2.0000
      Number of electrons: 80.000000
      Number of unpaired electrons: n_u =  2.00000, n_u,nl =  2.00000
      NO participation ratio (PR_NO):  2.000000
    
    NDOs
      Leading detachment eigenvalues:
        -1.0000  -0.0000
      Leading attachment eigenvalues:
         1.0000   0.0000
      Number of detached / attached electrons: p_D =  1.0000, p_A =  1.0000
      Number of involved orbitals: PR_D =  1.000000, PR_A =  1.000000
    
    Mulliken Population Analysis (State/Difference DM)
    Atom      Charge (e)              h+              e-           Del q
    --------------------------------------------------------------------
     1 O        0.122291        0.992203       -0.071328        0.920875
     2 H        0.309667        0.004006       -0.040099       -0.036094
     3 H        0.441221        0.003768        0.037305        0.041073
     4 O       -0.667204       -0.000000        0.008382        0.008382
     5 H        0.392580        0.000000        0.012671        0.012671
     6 H        0.243097       -0.000000       -0.058463       -0.058463
     7 O       -0.655069        0.000000       -0.011705       -0.011705
     8 H        0.349484        0.000000        0.011122        0.011122
     9 H        0.073687        0.000000       -0.265145       -0.265145
    10 O       -0.733417       -0.000000       -0.002754       -0.002754
    11 H        0.364025       -0.000000       -0.003867       -0.003867
    12 H        0.370483       -0.000000        0.005410        0.005410
    13 O       -0.662469        0.000000       -0.006109       -0.006108
    14 H        0.312293       -0.000000        0.005205        0.005205
    15 H        0.329437        0.000014       -0.026247       -0.026233
    16 O       -0.575033        0.000001        0.055929        0.055930
    17 H        0.357321        0.000001       -0.013349       -0.013348
    18 H        0.050135        0.000000       -0.205168       -0.205168
    19 O       -0.568791       -0.000000        0.029237        0.029237
    20 H        0.193172       -0.000000       -0.094125       -0.094125
    21 H        0.102564        0.000000       -0.202796       -0.202796
    22 O       -0.670484        0.000005       -0.002240       -0.002235
    23 H        0.046039        0.000001       -0.251996       -0.251995
    24 H        0.474970        0.000002        0.090131        0.090133
    --------------------------------------------------------------------
    Sum:        0.000000        1.000000       -1.000000       -0.000000
    
    Multipole moment analysis of the density matrix
      Molecular charge:                      0.000000
      Number of electrons:                   80.000000
        Center of electronic charge [Ang]: [  0.001431,  -0.020267,  -0.012453]
      Total nuclear charge:                  80.000000
        Center of nuclear charge [Ang]:    [ -0.007496,  -0.024990,   0.008726]
      Dipole moment [D]:                     9.016124
        Cartesian components [D]:          [ -3.430458,  -1.814791,   8.138119]
      RMS size of the density [Ang]:         3.202130
        Cartesian components [Ang]:        [  2.374632,   1.505957,   1.531943]
    
    Exciton analysis of the difference density matrix
      <r_h> [Ang]:                  [  0.789454,   0.037216,   0.805433]
      <r_e> [Ang]:                  [  0.893664,  -1.129009,  -0.303017]
      |<r_e - r_h>| [Ang]:            1.612328
      Hole size [Ang]:                0.122938
        Cartesian components [Ang]: [  0.070904,   0.070914,   0.071117]
      Electron size [Ang]:            3.629395
        Cartesian components [Ang]: [  2.407320,   1.820112,   2.016063]

  Singlet 3 :
  -------------------------
    NOs
      Occupation of frontier NOs:
         0.0000   1.0000   1.0000   2.0000
      Number of electrons: 80.000000
      Number of unpaired electrons: n_u =  2.00000, n_u,nl =  2.00000
      NO participation ratio (PR_NO):  2.000000
    
    NDOs
      Leading detachment eigenvalues:
        -1.0000  -0.0000
      Leading attachment eigenvalues:
         1.0000   0.0000
      Number of detached / attached electrons: p_D =  1.0000, p_A =  1.0000
      Number of involved orbitals: PR_D =  1.000000, PR_A =  1.000000
    
    Mulliken Population Analysis (State/Difference DM)
    Atom      Charge (e)              h+              e-           Del q
    --------------------------------------------------------------------
     1 O        0.163857        0.992203       -0.029761        0.962442
     2 H        0.332697        0.004006       -0.017069       -0.013063
     3 H        0.425878        0.003768        0.021962        0.025730
     4 O       -0.676303       -0.000000       -0.000718       -0.000718
     5 H        0.354202        0.000000       -0.025707       -0.025707
     6 H        0.158689       -0.000000       -0.142870       -0.142870
     7 O       -0.594367        0.000000        0.048997        0.048997
     8 H        0.130024        0.000000       -0.208338       -0.208338
     9 H        0.308703        0.000000       -0.030130       -0.030130
    10 O       -0.744692       -0.000000       -0.014029       -0.014029
    11 H        0.292961       -0.000000       -0.074931       -0.074931
    12 H        0.392176       -0.000000        0.027103        0.027103
    13 O       -0.615434        0.000000        0.040927        0.040927
    14 H        0.124876       -0.000000       -0.182212       -0.182212
[...]
1234  O 7   d 2     -0.00003   0.00073   0.00072
1235  O 7   d 3      0.00014   0.00084   0.00087
1236  O 7   d 4     -0.00020  -0.00064  -0.00100
1237  O 7   d 5     -0.00024  -0.00065  -0.00050
1238  O 7   d 1      0.00393   0.00642  -0.00945
1239  O 7   d 2     -0.00014  -0.00355  -0.00516
1240  O 7   d 3     -0.00147  -0.00470  -0.00078
1241  O 7   d 4     -0.00047   0.00028   0.00668
1242  O 7   d 5      0.00011   0.00228  -0.00211
1243  O 7   d 1      0.00014   0.00940  -0.02786
1244  O 7   d 2     -0.00833  -0.01246  -0.01008
1245  O 7   d 3      0.00113  -0.00245  -0.00678
1246  O 7   d 4      0.00578   0.00209   0.01750
1247  O 7   d 5     -0.00394   0.00936  -0.00547
1248  O 7   f 1      0.00005   0.00010   0.00001
1249  O 7   f 2     -0.00001   0.00000   0.00012
1250  O 7   f 3     -0.00005  -0.00006   0.00006
1251  O 7   f 4     -0.00003   0.00001  -0.00005
1252  O 7   f 5     -0.00004  -0.00007   0.00002
1253  O 7   f 6     -0.00003  -0.00004   0.00007
1254  O 7   f 7     -0.00001  -0.00003   0.00015
1255  O 7   f 1     -0.00044  -0.00076   0.00030
1256  O 7   f 2      0.00018   0.00011  -0.00103
1257  O 7   f 3      0.00036   0.00049  -0.00055
1258  O 7   f 4      0.00022   0.00001  -0.00013
1259  O 7   f 5      0.00042   0.00058  -0.00051
1260  O 7   f 6     -0.00000   0.00006  -0.00020
1261  O 7   f 7      0.00007   0.00018  -0.00075
1262  O 7   f 1     -0.00107  -0.00694  -0.00609
1263  O 7   f 2     -0.00186  -0.00141  -0.01133
1264  O 7   f 3     -0.00087  -0.00021   0.00120
1265  O 7   f 4     -0.00085  -0.00375  -0.00340
1266  O 7   f 5      0.00183   0.00558   0.00158
1267  O 7   f 6     -0.00092   0.00185  -0.00291
1268  O 7   f 7      0.00058   0.00072  -0.00726
1269  O 7   g 1      0.00005   0.00005  -0.00018
1270  O 7   g 2      0.00001   0.00006  -0.00009
1271  O 7   g 3      0.00000   0.00002   0.00007
1272  O 7   g 4     -0.00000  -0.00001  -0.00001
1273  O 7   g 5      0.00006   0.00006  -0.00009
1274  O 7   g 6      0.00002  -0.00002   0.00003
1275  O 7   g 7     -0.00001  -0.00001   0.00007
1276  O 7   g 8      0.00001   0.00000   0.00011
1277  O 7   g 9     -0.00002  -0.00000   0.00008
1278  O 7   g 1      0.00013   0.00036   0.00080
1279  O 7   g 2     -0.00000  -0.00083  -0.00027
1280  O 7   g 3     -0.00049  -0.00103  -0.00077
1281  O 7   g 4     -0.00003   0.00021   0.00053
1282  O 7   g 5     -0.00014  -0.00006  -0.00008
1283  O 7   g 6     -0.00006   0.00029  -0.00104
1284  O 7   g 7     -0.00007  -0.00010  -0.00041
1285  O 7   g 8     -0.00011  -0.00013  -0.00172
1286  O 7   g 9     -0.00028  -0.00082  -0.00132
1287  O 7   h 1      0.00000  -0.00001   0.00008
1288  O 7   h 2     -0.00000  -0.00000  -0.00001
1289  O 7   h 3      0.00002   0.00002  -0.00004
1290  O 7   h 4     -0.00001  -0.00004   0.00016
1291  O 7   h 5     -0.00000  -0.00001   0.00009
1292  O 7   h 6     -0.00003   0.00001   0.00000
1293  O 7   h 7     -0.00004  -0.00009  -0.00014
1294  O 7   h 8      0.00001  -0.00002   0.00003
1295  O 7   h 9     -0.00003  -0.00004  -0.00011
1296  O 7   h10     -0.00000  -0.00006  -0.00023
1297  O 7   h11      0.00007   0.00011  -0.00010
1298  H 13  s       -0.00095  -0.00142  -0.00270
1299  H 13  s       -0.00286  -0.00389   0.00042
1300  H 13  s       -0.02076  -0.04972  -0.13318
1301  H 13  s       -0.02262   0.02082   0.02244
1302  H 13  s       -0.01815  -0.05447  -0.58208
1303  H 13  px      -0.00007  -0.00027  -0.00114
1304  H 13  py      -0.00004   0.00012   0.00107
1305  H 13  pz       0.00005  -0.00012  -0.00100
1306  H 13  px      -0.00001   0.00049   0.00109
1307  H 13  py      -0.00047  -0.00099  -0.00231
1308  H 13  pz       0.00018   0.00064   0.00149
1309  H 13  px       0.00204   0.00460   0.01497
1310  H 13  py      -0.00101  -0.00485   0.00717
1311  H 13  pz      -0.00053   0.00054   0.00627
1312  H 13  px       0.01150   0.00232  -0.00183
1313  H 13  py      -0.00468  -0.00541   0.01147
1314  H 13  pz      -0.00083  -0.01156   0.00866
1315  H 13  d 1      0.00001   0.00003  -0.00017
1316  H 13  d 2      0.00013   0.00012  -0.00006
1317  H 13  d 3     -0.00002   0.00002   0.00004
1318  H 13  d 4     -0.00002   0.00002   0.00030
1319  H 13  d 5     -0.00004  -0.00005   0.00042
1320  H 13  d 1      0.00010   0.00082   0.00234
1321  H 13  d 2     -0.00046   0.00006   0.00130
1322  H 13  d 3      0.00022   0.00032   0.00012
1323  H 13  d 4      0.00018  -0.00056  -0.00396
1324  H 13  d 5      0.00030   0.00030  -0.00374
1325  H 13  d 1     -0.00129  -0.00100  -0.00752
1326  H 13  d 2     -0.00193  -0.00288  -0.00542
1327  H 13  d 3      0.00264   0.00444  -0.00401
1328  H 13  d 4      0.00242   0.00652  -0.00196
1329  H 13  d 5     -0.00283  -0.00065  -0.00436
1330  H 13  f 1     -0.00003  -0.00011  -0.00028
1331  H 13  f 2     -0.00007  -0.00022  -0.00041
1332  H 13  f 3     -0.00002  -0.00004  -0.00005
1333  H 13  f 4     -0.00003  -0.00015  -0.00037
1334  H 13  f 5      0.00003   0.00005  -0.00001
1335  H 13  f 6      0.00000   0.00008   0.00023
1336  H 13  f 7     -0.00006  -0.00006   0.00012
1337  H 13  f 1      0.00026   0.00040  -0.00018
1338  H 13  f 2      0.00082   0.00145   0.00113
1339  H 13  f 3      0.00041   0.00076  -0.00017
1340  H 13  f 4      0.00022   0.00085   0.00096
1341  H 13  f 5     -0.00078  -0.00130   0.00118
1342  H 13  f 6     -0.00017  -0.00071   0.00192
1343  H 13  f 7      0.00053   0.00008   0.00160
1344  H 13  g 1      0.00001  -0.00000   0.00013
1345  H 13  g 2     -0.00003  -0.00005   0.00008
1346  H 13  g 3     -0.00004  -0.00009   0.00004
1347  H 13  g 4     -0.00001  -0.00000   0.00004
1348  H 13  g 5     -0.00003  -0.00008   0.00007
1349  H 13  g 6      0.00003   0.00002   0.00000
1350  H 13  g 7      0.00003   0.00005  -0.00011
1351  H 13  g 8     -0.00001   0.00001  -0.00020
1352  H 13  g 9     -0.00003  -0.00000  -0.00010
1353  H 14  s       -0.00160  -0.00240  -0.00077
1354  H 14  s        0.00077   0.00087  -0.01086
1355  H 14  s       -0.03978  -0.09981   0.01884
1356  H 14  s       -0.01644  -0.02502   0.07789
1357  H 14  s       -0.08090  -0.22841   0.13400
1358  H 14  px       0.00047   0.00071   0.00006
1359  H 14  py       0.00037   0.00059  -0.00010
1360  H 14  pz      -0.00010  -0.00006   0.00014
1361  H 14  px       0.00049   0.00010  -0.00120
1362  H 14  py      -0.00022  -0.00072  -0.00076
1363  H 14  pz       0.00057   0.00074  -0.00069
1364  H 14  px      -0.00525  -0.01690   0.01495
1365  H 14  py      -0.00114  -0.00912   0.00339
1366  H 14  pz      -0.00082  -0.00407   0.00886
1367  H 14  px      -0.00269  -0.01315   0.03608
1368  H 14  py      -0.00069  -0.01917   0.03873
1369  H 14  pz       0.00474  -0.00382  -0.00495
1370  H 14  d 1      0.00018   0.00025  -0.00033
1371  H 14  d 2     -0.00012  -0.00006   0.00008
1372  H 14  d 3     -0.00014  -0.00004   0.00017
1373  H 14  d 4     -0.00006  -0.00010  -0.00004
1374  H 14  d 5      0.00007   0.00014  -0.00016
1375  H 14  d 1     -0.00171  -0.00360   0.00178
1376  H 14  d 2      0.00054   0.00006   0.00026
1377  H 14  d 3      0.00121   0.00176  -0.00135
1378  H 14  d 4      0.00036   0.00022   0.00114
1379  H 14  d 5     -0.00083  -0.00162   0.00204
1380  H 14  d 1     -0.00216  -0.00421   0.01498
1381  H 14  d 2     -0.00043  -0.00392   0.00616
1382  H 14  d 3      0.00151   0.00378  -0.00841
1383  H 14  d 4     -0.00043  -0.00673   0.00429
1384  H 14  d 5     -0.00318  -0.00107   0.00712
1385  H 14  f 1     -0.00013  -0.00039  -0.00015
1386  H 14  f 2      0.00002   0.00006  -0.00001
1387  H 14  f 3      0.00007   0.00018   0.00003
1388  H 14  f 4      0.00005   0.00001  -0.00009
1389  H 14  f 5      0.00011   0.00031  -0.00003
1390  H 14  f 6      0.00001  -0.00003   0.00011
1391  H 14  f 7     -0.00000  -0.00001   0.00014
1392  H 14  f 1     -0.00094  -0.00060   0.00433
1393  H 14  f 2      0.00020  -0.00109   0.00159
1394  H 14  f 3      0.00022   0.00023  -0.00150
1395  H 14  f 4     -0.00036   0.00076  -0.00060
1396  H 14  f 5      0.00044   0.00007  -0.00228
1397  H 14  f 6      0.00003  -0.00014   0.00020
1398  H 14  f 7     -0.00006   0.00040  -0.00046
1399  H 14  g 1     -0.00008  -0.00008   0.00021
1400  H 14  g 2      0.00003  -0.00007   0.00016
1401  H 14  g 3      0.00005   0.00007  -0.00018
1402  H 14  g 4     -0.00001   0.00005  -0.00004
1403  H 14  g 5     -0.00004  -0.00006   0.00013
1404  H 14  g 6     -0.00001   0.00007  -0.00009
1405  H 14  g 7      0.00002   0.00002  -0.00009
1406  H 14  g 8      0.00000   0.00003  -0.00001
1407  H 14  g 9      0.00004   0.00007  -0.00015
1408  O 8   s       -0.00082  -0.00052   0.00038
1409  O 8   s        0.04105   0.02518  -0.03052
1410  O 8   s        0.00128   0.00027  -0.00140
1411  O 8   s        0.04901   0.04429  -0.04678
1412  O 8   s        0.04145  -0.06109   0.08110
1413  O 8   s        0.07653  -0.35832   0.20303
1414  O 8   px      -0.00717  -0.00136   0.00429
1415  O 8   py      -0.01695  -0.01807   0.01877
1416  O 8   pz      -0.00459  -0.01427   0.00853
1417  O 8   px      -0.01303  -0.00428   0.00851
1418  O 8   py      -0.02621  -0.03050   0.03194
1419  O 8   pz      -0.00582  -0.02237   0.01329
1420  O 8   px      -0.00562   0.00997  -0.00510
1421  O 8   py      -0.04812  -0.03844   0.03393
1422  O 8   pz      -0.02119  -0.03922   0.02231
1423  O 8   px       0.03482   0.08983  -0.05125
1424  O 8   py      -0.07291   0.01271  -0.00199
1425  O 8   pz      -0.05283  -0.03670   0.03070
1426  O 8   px       0.06992   0.19632  -0.13297
1427  O 8   py      -0.07971  -0.00737   0.03103
1428  O 8   pz      -0.15675  -0.16504   0.14137
1429  O 8   d 1     -0.00001  -0.00001   0.00001
1430  O 8   d 2     -0.00009  -0.00010   0.00006
1431  O 8   d 3      0.00003  -0.00002  -0.00003
1432  O 8   d 4     -0.00001   0.00002   0.00005
1433  O 8   d 5      0.00001  -0.00004  -0.00009
1434  O 8   d 1      0.00070   0.00065  -0.00061
1435  O 8   d 2     -0.00034   0.00046   0.00016
1436  O 8   d 3     -0.00035   0.00027   0.00055
1437  O 8   d 4      0.00034   0.00034  -0.00025
1438  O 8   d 5      0.00014   0.00001  -0.00013
1439  O 8   d 1     -0.00151  -0.00210   0.00107
1440  O 8   d 2      0.00516  -0.00248   0.00373
1441  O 8   d 3      0.00111   0.00039  -0.00285
1442  O 8   d 4      0.00365   0.00612  -0.00510
1443  O 8   d 5     -0.00869  -0.00551   0.00141
1444  O 8   d 1      0.00139  -0.01012  -0.00506
1445  O 8   d 2      0.03003   0.00624  -0.01442
1446  O 8   d 3     -0.00629   0.00133   0.00199
1447  O 8   d 4      0.01888   0.03833  -0.02942
1448  O 8   d 5     -0.03612  -0.03066   0.01844
1449  O 8   f 1     -0.00013  -0.00009   0.00006
1450  O 8   f 2      0.00009   0.00013  -0.00011
1451  O 8   f 3      0.00003  -0.00002   0.00000
1452  O 8   f 4     -0.00003   0.00001  -0.00003
1453  O 8   f 5      0.00001   0.00004  -0.00004
1454  O 8   f 6     -0.00006   0.00002  -0.00013
1455  O 8   f 7      0.00000  -0.00001   0.00001
1456  O 8   f 1      0.00093   0.00048   0.00000
1457  O 8   f 2     -0.00047  -0.00055   0.00040
1458  O 8   f 3     -0.00024   0.00002  -0.00008
1459  O 8   f 4      0.00064   0.00041  -0.00007
1460  O 8   f 5     -0.00001  -0.00008   0.00014
1461  O 8   f 6      0.00060  -0.00041   0.00121
1462  O 8   f 7      0.00024   0.00040  -0.00037
1463  O 8   f 1      0.00782   0.00722  -0.00409
1464  O 8   f 2     -0.00482  -0.00609   0.00670
1465  O 8   f 3      0.00106   0.00327  -0.00055
1466  O 8   f 4      0.00482   0.00520  -0.00337
1467  O 8   f 5     -0.00109   0.00031  -0.00013
1468  O 8   f 6      0.00616  -0.00352  -0.00227
1469  O 8   f 7      0.00346   0.00561  -0.00502
1470  O 8   g 1      0.00008   0.00012  -0.00009
1471  O 8   g 2     -0.00008  -0.00010   0.00003
1472  O 8   g 3      0.00001  -0.00002  -0.00001
1473  O 8   g 4      0.00005   0.00008  -0.00009
1474  O 8   g 5      0.00001  -0.00001  -0.00003
1475  O 8   g 6      0.00001  -0.00001   0.00001
1476  O 8   g 7     -0.00005  -0.00002  -0.00001
1477  O 8   g 8      0.00009   0.00010  -0.00016
1478  O 8   g 9     -0.00001  -0.00002   0.00005
1479  O 8   g 1     -0.00103  -0.00144   0.00105
1480  O 8   g 2     -0.00038   0.00054  -0.00014
1481  O 8   g 3      0.00007   0.00028  -0.00010
1482  O 8   g 4     -0.00116  -0.00115   0.00084
1483  O 8   g 5     -0.00052   0.00012   0.00017
1484  O 8   g 6      0.00004  -0.00032   0.00006
1485  O 8   g 7     -0.00004   0.00002   0.00020
1486  O 8   g 8     -0.00106  -0.00055   0.00127
1487  O 8   g 9      0.00089   0.00034  -0.00046
1488  O 8   h 1     -0.00003   0.00002   0.00002
1489  O 8   h 2      0.00001  -0.00002  -0.00006
1490  O 8   h 3      0.00010   0.00007  -0.00011
1491  O 8   h 4      0.00002   0.00005  -0.00002
1492  O 8   h 5      0.00010   0.00006  -0.00007
1493  O 8   h 6     -0.00002  -0.00008   0.00003
1494  O 8   h 7      0.00009   0.00003  -0.00007
1495  O 8   h 8     -0.00019  -0.00014   0.00014
1496  O 8   h 9      0.00000   0.00008  -0.00005
1497  O 8   h10     -0.00005  -0.00011   0.00003
1498  O 8   h11     -0.00011  -0.00008   0.00011
1499  H 15  s       -0.00343  -0.00236   0.00391
1500  H 15  s       -0.00137  -0.00387   0.01141
1501  H 15  s       -0.13119  -0.03553   0.05226
1502  H 15  s       -0.02979   0.25545  -0.20959
1503  H 15  s       -0.56802  -0.74185   0.60142
1504  H 15  px       0.00009   0.00008  -0.00016
1505  H 15  py       0.00134   0.00139  -0.00134
1506  H 15  pz       0.00078   0.00103  -0.00077
1507  H 15  px      -0.00075  -0.00075   0.00108
1508  H 15  py      -0.00113  -0.00170   0.00207
1509  H 15  pz       0.00032  -0.00164   0.00087
1510  H 15  px       0.00587   0.00796  -0.01258
1511  H 15  py      -0.00630   0.02863  -0.02732
1512  H 15  pz      -0.01277   0.01151  -0.01235
1513  H 15  px       0.00638  -0.01399   0.00140
1514  H 15  py      -0.01186   0.07544  -0.08089
1515  H 15  pz      -0.00221   0.04719  -0.07651
1516  H 15  d 1     -0.00021  -0.00026   0.00017
1517  H 15  d 2      0.00039   0.00028  -0.00021
1518  H 15  d 3      0.00032   0.00031  -0.00023
1519  H 15  d 4      0.00009  -0.00009   0.00025
1520  H 15  d 5     -0.00029  -0.00018  -0.00017
1521  H 15  d 1      0.00119   0.00199  -0.00173
1522  H 15  d 2     -0.00394  -0.00097   0.00022
1523  H 15  d 3     -0.00162  -0.00213   0.00139
1524  H 15  d 4     -0.00015   0.00107  -0.00183
1525  H 15  d 5      0.00259  -0.00027   0.00154
1526  H 15  d 1      0.00242   0.00088  -0.00504
1527  H 15  d 2     -0.00027   0.01354  -0.02292
1528  H 15  d 3     -0.00040  -0.00314  -0.00257
1529  H 15  d 4      0.00413  -0.00081  -0.00042
1530  H 15  d 5     -0.00417  -0.01427   0.01186
1531  H 15  f 1      0.00018  -0.00003   0.00003
1532  H 15  f 2      0.00009   0.00022  -0.00023
1533  H 15  f 3     -0.00020  -0.00007   0.00018
1534  H 15  f 4      0.00020   0.00008  -0.00011
1535  H 15  f 5     -0.00000   0.00014  -0.00009
1536  H 15  f 6      0.00039   0.00005  -0.00003
1537  H 15  f 7      0.00002  -0.00003   0.00001
1538  H 15  f 1     -0.00018  -0.00139   0.00149
1539  H 15  f 2      0.00038  -0.00006  -0.00048
1540  H 15  f 3     -0.00086  -0.00104  -0.00161
1541  H 15  f 4     -0.00030  -0.00171   0.00201
1542  H 15  f 5      0.00017  -0.00059   0.00025
1543  H 15  f 6      0.00008  -0.00125   0.00269
1544  H 15  f 7     -0.00083  -0.00101   0.00148
1545  H 15  g 1     -0.00003  -0.00006   0.00009
1546  H 15  g 2      0.00008  -0.00005   0.00012
1547  H 15  g 3      0.00004   0.00002  -0.00003
1548  H 15  g 4     -0.00001  -0.00011   0.00006
1549  H 15  g 5      0.00007  -0.00000   0.00011
1550  H 15  g 6      0.00001  -0.00001   0.00001
1551  H 15  g 7      0.00011   0.00007   0.00010
1552  H 15  g 8     -0.00004  -0.00005   0.00011
1553  H 15  g 9     -0.00000   0.00011  -0.00008
1554  H 16  s       -0.00229  -0.00190   0.00054
1555  H 16  s       -0.00892  -0.01135   0.00741
1556  H 16  s        0.02341   0.09557  -0.06254
1557  H 16  s        0.26108   0.32537  -0.30148
1558  H 16  s       -0.00328   0.32240  -0.11884
1559  H 16  px       0.00102   0.00019  -0.00055
1560  H 16  py       0.00008  -0.00013   0.00010
1561  H 16  pz      -0.00036   0.00011   0.00004
1562  H 16  px      -0.00306  -0.00156   0.00277
1563  H 16  py      -0.00062   0.00037   0.00015
1564  H 16  pz       0.00061  -0.00091   0.00054
1565  H 16  px       0.03769   0.04272  -0.03999
1566  H 16  py      -0.00401  -0.01068   0.00667
1567  H 16  pz      -0.01639  -0.01204   0.01263
1568  H 16  px       0.07233   0.11242  -0.08861
1569  H 16  py      -0.00084   0.00948  -0.01932
1570  H 16  pz      -0.01445  -0.02824   0.01288
1571  H 16  d 1      0.00005   0.00007   0.00013
1572  H 16  d 2     -0.00003   0.00001  -0.00005
1573  H 16  d 3     -0.00020   0.00004  -0.00005
1574  H 16  d 4     -0.00016   0.00008  -0.00006
1575  H 16  d 5     -0.00010  -0.00005   0.00014
1576  H 16  d 1     -0.00161  -0.00215   0.00099
1577  H 16  d 2      0.00060   0.00075  -0.00044
1578  H 16  d 3      0.00076  -0.00049   0.00042
1579  H 16  d 4     -0.00091  -0.00252   0.00222
1580  H 16  d 5      0.00164   0.00220  -0.00218
1581  H 16  d 1     -0.00639  -0.00725   0.00500
1582  H 16  d 2     -0.00042  -0.00016   0.00338
1583  H 16  d 3     -0.00746  -0.00865   0.00914
1584  H 16  d 4     -0.01616  -0.00810   0.01200
1585  H 16  d 5      0.01902   0.02185  -0.02330
1586  H 16  f 1     -0.00007  -0.00020   0.00008
1587  H 16  f 2      0.00015   0.00022  -0.00030
1588  H 16  f 3     -0.00002  -0.00014   0.00012
1589  H 16  f 4      0.00011   0.00020  -0.00013
1590  H 16  f 5      0.00003  -0.00001  -0.00006
1591  H 16  f 6     -0.00018  -0.00024   0.00013
1592  H 16  f 7     -0.00004   0.00009   0.00001
1593  H 16  f 1     -0.00168  -0.00151   0.00132
1594  H 16  f 2      0.00030   0.00035   0.00099
1595  H 16  f 3      0.00040   0.00094  -0.00108
1596  H 16  f 4      0.00095   0.00034  -0.00100
1597  H 16  f 5     -0.00017  -0.00083   0.00109
1598  H 16  f 6     -0.00182  -0.00128   0.00247
1599  H 16  f 7      0.00251   0.00254  -0.00334
1600  H 16  g 1     -0.00014  -0.00016   0.00013
1601  H 16  g 2      0.00009   0.00015  -0.00006
1602  H 16  g 3     -0.00002   0.00001  -0.00004
1603  H 16  g 4     -0.00004  -0.00004   0.00002
1604  H 16  g 5     -0.00004   0.00005  -0.00003
1605  H 16  g 6      0.00011   0.00009  -0.00013
1606  H 16  g 7      0.00001  -0.00003   0.00003
1607  H 16  g 8     -0.00017  -0.00018   0.00024
1608  H 16  g 9      0.00011   0.00015  -0.00015

 -----------------------------------------------------------------
                    Cartesian Multipole Moments
 -----------------------------------------------------------------
    Charge (ESU x 10^10)
                 0.0000
    Dipole Moment (Debye)
         X      -2.9299      Y      -7.4164      Z       2.8140
       Tot       8.4561
    Quadrupole Moments (Debye-Ang)
        XX     -68.8557     XY       0.7190     YY     -39.1218
        XZ      -9.6369     YZ       6.9376     ZZ     -59.4760
    Octopole Moments (Debye-Ang^2)
       XXX     -64.1146    XXY     -38.2422    XYY      -6.9941
       YYY     -42.1400    XXZ       5.8270    XYZ      27.4445
       YYZ      52.1615    XZZ     -34.7948    YZZ      -6.7507
       ZZZ      13.6466
    Hexadecapole Moments (Debye-Ang^3)
      XXXX   -1915.2909   XXXY      23.5768   XXYY    -414.7214
      XYYY     -22.3656   YYYY    -518.0645   XXXZ    -118.9661
      XXYZ      55.9337   XYYZ     -23.0348   YYYZ      56.8967
      XXZZ    -582.1555   XYZZ     -25.2227   YYZZ    -191.4084
      XZZZ      64.3453   YZZZ     119.7447   ZZZZ    -786.1555
 -----------------------------------------------------------------
 Total job time:  269275.97s(wall), 1065761.27s(cpu) 
 Tue Jan 21 15:00:54 2025

        *************************************************************
        *                                                           *
        *  Thank you very much for using Q-Chem.  Have a nice day.  *
        *                                                           *
        *************************************************************


