                  Welcome to Q-Chem
     A Quantum Leap Into The Future Of Chemistry


 Q-Chem 6.2 (devel), Q-Chem, Inc., Pleasanton, CA (2024)

 E. Epifanovsky,  A. T. B. Gilbert,  Xintian Feng,  Joonho Lee,  Yuezhi Mao,  
 N. Mardirossian,  P. Pokhilko,  A. White,  M. Wormit,  M. P. Coons,  
 A. L. Dempwolff,  Zhengting Gan,  D. Hait,  P. R. Horn,  L. D. Jacobson,  
 I. Kaliman,  J. Kussmann,  A. W. Lange,  Ka Un Lao,  D. S. Levine,  Jie Liu,  
 S. C. McKenzie,  A. F. Morrison,  K. D. Nanda,  F. Plasser,  D. R. Rehn,  
 M. L. Vidal,  Zhi-Qiang You,  Ying Zhu,  Huseyin Aksu,  B. Alam,  
 B. Albrecht,  A. Aldossary,  E. Alguire,  J. H. Andersen,  
 J. E. Arias-Martinez,  V. Athavale,  D. Barton,  K. Begam,  A. Behn,  
 N. Bellonzi,  Y. A. Bernard,  E. J. Berquist,  H. Burton,  A. Carreras,  
 K. Carter-Fenk,  Mathew Chow,  Romit Chakraborty,  Chandrima Chakravarty,  
 Junhan Chen,  A. D. Chien,  K. D. Closser,  V. Cofer-Shabica,  L. Cunha,  
 S. Dasgupta,  Jia Deng,  Joseph Dickinson,  M. de Wergifosse,  
 M. Diedenhofen,  Hainam Do,  Wenjie Dou,  S. Ehlert,  Po-Tung Fang,  
 S. Fatehi,  Qingguo Feng,  Jonathan Fetherolf,  T. Friedhoff,  
 Thomas Froitzheim,  Sarai Folkestad,  B. Ganoe,  J. Gayvert,  Qinghui Ge,  
 G. Gidofalvi,  M. Gimferrer,  M. Goldey,  Montgomery Gray,  J. Gomes,  
 C. Gonzalez-Espinoza,  S. Gulania,  A. Gunina,  J. A. Gyamfi,  
 M. W. D. Hanson-Heine,  P. H. P. Harbach,  A. W. Hauser,  M. F. Herbst,  
 M. Hernandez Vera,  M. Hodecker,  Z. C. Holden,  S. Houck,  Xunkun Huang,  
 Kerwin Hui,  B. C. Huynh,  K. Ikeda,  M. Ivanov,  Nayanthara K. Jayadev,  
 Hyunjun Ji,  Zuxin Jin,  Hanjie Jiang,  Subrata Jana,  B. Kaduk,  
 S. Kaehler,  R. Kang,  K. Khistyaev,  Jaehoon Kim,  Yongbin Kim,  
 P. Klunzinger,  Z. Koczor-Benda,  Joong Hoon Koh,  D. Kosenkov,  
 Saikiran Kotaru,  L. Koulias,  T. Kowalczyk,  C. M. Krauter,  K. Kue,  
 A. Kunitsa,  T. Kus,  A. Landau,  K. V. Lawler,  D. Lefrancois,  S. Lehtola,  
 Rain Li,  Shaozhi Li,  Tao E. Li,  Yi-Pei Li,  Jiashu Liang,  M. Liebenthal,  
 Hung-Hsuan Lin,  You-Sheng Lin,  Fenglai Liu,  Kuan-Yu Liu,  Xiao Liu,  
 M. Loipersberger,  A. Luenser,  C. Malbon,  Aniket Mandal,  Manisha,  
 A. Manjanath,  P. Manohar,  E. Mansoor,  S. F. Manzer,  Shan-Ping Mao,  
 A. V. Marenich,  T. Markovich,  S. Mason,  F. Matz,  S. A. Maurer,  
 Samuel May,  Alexandra McIsaac,  P. F. McLaughlin,  M. F. S. J. Menger,  
 J.-M. Mewes,  S. A. Mewes,  P. Morgante,  Mohammad Mostafanejad,  
 Madhubani Mukherjee,  J. W. Mullinax,  Quyen Nguyen,  Avik Kumar Ojha,  
 K. J. Oosterbaan,  Eno Paenurk,  Xiaoliang Pan,  G. Paran,  V. Parravicini,  
 Alexander C. Paul,  Suranjan K. Paul,  F. Pavosevic,  Zheng Pei,  S. Prager,  
 E. I. Proynov,  E. Ramos,  B. Rana,  A. E. Rask,  A. Rettig,  R. M. Richard,  
 F. Rob,  E. Rossomme,  T. Scheele,  M. Scheurer,  M. Schneider,  
 P. E. Schneider,  Tim K. Schramm,  N. Sergueev,  S. M. Sharada,  
 Hengyuan Shen,  W. Skomorowski,  D. W. Small,  C. J. Stein,  
 Alistair J. Sterling,  Yingli Su,  Yu-Chuan Su,  E. J. Sundstrom,  
 J. Talbot,  Zhen Tao,  J. Thirman,  Hung-Yi Tsai,  T. Tsuchimochi,  
 N. M. Tubman,  C. Utku,  S. P. Veccham,  O. Vydrov,  Rahel Weiss,  
 J. Wenzel,  Jonathan Wong,  J. Witte,  H. Wu,  Yanze Wu,  A. Yamada,  
 Chou-Hsun Yang,  Kun Yao,  S. Yeganeh,  S. R. Yost,  Qi Yu,  A. Zech,  
 F. Zeller,  Chongxiao Zhao,  Igor Ying Zhang,  Xing Zhang,  Yu Zhang,  
 D. Zuev,  A. Aspuru-Guzik,  A. T. Bell,  N. A. Besley,  K. B. Bravaya,  
 B. R. Brooks,  D. Casanova,  Jeng-Da Chai,  Hsing-Ta Chen,  S. Coriani,  
 C. J. Cramer,  A. E. DePrince, III,  R. A. DiStasio Jr.,  A. Dreuw,  
 B. D. Dunietz,  T. R. Furlani,  W. A. Goddard III,  S. Grimme,  
 S. Hammes-Schiffer,  T. Head-Gordon,  W. J. Hehre,  Chao-Ping Hsu,  
 T.-C. Jagau,  Yousung Jung,  A. Klamt,  Jing Kong,  D. S. Lambrecht,  
 Xiangyuan Li,  WanZhen Liang,  N. J. Mayhall,  C. W. McCurdy,  J. B. Neaton,  
 T. Neudecker,  C. Ochsenfeld,  J. A. Parkhill,  R. Peverati,  
 V. A. Rassolov,  Haisheng Ren,  Yihan Shao,  L. V. Slipchenko,  
 R. P. Steele,  J. E. Subotnik,  A. J. W. Thom,  A. Tkatchenko,  
 D. G. Truhlar,  T. Van Voorhis,  Fan Wang,  T. A. Wesolowski,  K. B. Whaley,  
 H. L. Woodcock III,  P. M. Zimmerman,  S. Faraji,  P. M. W. Gill,  
 M. Head-Gordon,  J. M. Herbert,  A. I. Krylov

 Contributors to earlier versions of Q-Chem not listed above: 
 R. D. Adamson,  B. Austin,  R. Baer,  J. Baker,  G. J. O. Beran,  
 K. Brandhorst,  S. T. Brown,  E. F. C. Byrd,  Arup K. Chakraborty,  
 G. K. L. Chan,  Chun-Min Chang,  Yunqing Chen,  C.-L. Cheng,  
 Siu Hung Chien,  D. M. Chipman,  D. L. Crittenden,  H. Dachsel,  
 R. J. Doerksen,  A. D. Dutoi,  R. G. Edgar,  J. Fosso-Tande,  
 L. Fusti-Molnar,  D. Ghosh,  A. Ghysels,  A. Golubeva-Zadorozhnaya,  
 J. Gonthier,  M. S. Gordon,  S. R. Gwaltney,  G. Hawkins,  J. E. Herr,  
 A. Heyden,  S. Hirata,  E. G. Hohenstein,  G. Kedziora,  F. J. Keil,  
 C. Kelley,  Jihan Kim,  R. A. King,  R. Z. Khaliullin,  P. P. Korambath,  
 W. Kurlancheek,  A. Laurent,  A. M. Lee,  M. S. Lee,  S. V. Levchenko,  
 Ching Yeh Lin,  D. Liotard,  E. Livshits,  R. C. Lochan,  I. Lotan,  
 L. A. Martinez-Martinez,  P. E. Maslen,  N. Nair,  D. P. O'Neill,  
 D. Neuhauser,  E. Neuscamman,  C. M. Oana,  R. Olivares-Amaya,  R. Olson,  
 T. M. Perrine,  B. Peters,  P. A. Pieniazek,  A. Prociuk,  Y. M. Rhee,  
 J. Ritchie,  M. A. Rohrdanz,  E. Rosta,  N. J. Russ,  H. F. Schaefer III,  
 M. W. Schmidt,  N. E. Schultz,  S. Sharma,  N. Shenvi,  C. D. Sherrill,  
 A. C. Simmonett,  A. Sodt,  T. Stein,  D. Stuck,  K. S. Thanthiriwatte,  
 V. Vanovschi,  L. Vogt,  Tao Wang,  A. Warshel,  M. A. Watson,  
 C. F. Williams,  Q. Wu,  X. Xu,  Jun Yang,  W. Zhang,  Yan Zhao

   Please cite Q-Chem as follows:
  "Software for the frontiers of quantum chemistry:
   An overview of developments in the Q-Chem 5 package"
   J. Chem. Phys. 155, 084801 (2021)
   https://doi.org/10.1063/5.0055522 (open access)

 Q-Chem 6.2.2 for Intel X86 EM64T Linux

 Parts of Q-Chem use Armadillo 9.900.5 (Nocturnal Misbehaviour).
 http://arma.sourceforge.net/

 Q-Chem begins on Tue Jan 14 16:29:57 2025  

 Host: compute-0-9.local
0

     Scratch files written to /scratch/keith/A2D2_2//
 Processing $rem in /home/keith/software/qchem/qchem_622/config/preferences:
 Processing $rem in /home/keith/.qchemrc:

 Checking the input file for inconsistencies... 	...done.

--------------------------------------------------------------
User input:
--------------------------------------------------------------
$molecule
0 1
O 0.78956 0.03727 0.80554
H 0.22173 -0.72113 0.89154
H 0.56853 0.38694 -0.06056
O -3.08844 -1.31773 -0.66346
H -2.24274 -1.71473 -0.48906
H -3.63794 -1.75853 -0.00746
O -1.01434 -2.54353 0.65554
H -0.19194 -3.09913 0.53154
H -1.37074 -2.92453 1.48454
O -2.48324 1.32341 -0.44366
H -3.14164 0.59402 -0.32926
H -2.08214 1.38290 0.44354
O -1.19474 1.84836 2.19554
H -1.16424 2.68627 2.66954
H -0.29014 1.60051 1.93154
O 3.69956 -0.93153 1.48454
H 2.89506 -0.47753 1.29054
H 3.53776 -1.75293 0.94254
O 3.36066 0.94113 -2.26146
H 4.04446 0.44521 -1.76726
H 2.54036 0.39352 -2.23506
O 0.00709 0.89662 -1.86126
H -0.01184 0.08237 -2.39536
H -0.88314 0.84558 -1.49376
$end

$rem
method                    b3lyp 
basis                     cc-pv5z 
mem_total                 48000
mem_static                8000
thresh                    12
scf_convergence           8
xc_grid                   000075000302
max_scf_cycles            2000
symmetry                  false
sym_ignore                true
print_orbitals true
$end
gui                       2
molden_format true
--------------------------------------------------------------
 ----------------------------------------------------------------
             Standard Nuclear Orientation (Angstroms)
    I     Atom           X                Y                Z
 ----------------------------------------------------------------
    1      O       0.7895600000     0.0372700000     0.8055400000
    2      H       0.2217300000    -0.7211300000     0.8915400000
    3      H       0.5685300000     0.3869400000    -0.0605600000
    4      O      -3.0884400000    -1.3177300000    -0.6634600000
    5      H      -2.2427400000    -1.7147300000    -0.4890600000
    6      H      -3.6379400000    -1.7585300000    -0.0074600000
    7      O      -1.0143400000    -2.5435300000     0.6555400000
    8      H      -0.1919400000    -3.0991300000     0.5315400000
    9      H      -1.3707400000    -2.9245300000     1.4845400000
   10      O      -2.4832400000     1.3234100000    -0.4436600000
   11      H      -3.1416400000     0.5940200000    -0.3292600000
   12      H      -2.0821400000     1.3829000000     0.4435400000
   13      O      -1.1947400000     1.8483600000     2.1955400000
   14      H      -1.1642400000     2.6862700000     2.6695400000
   15      H      -0.2901400000     1.6005100000     1.9315400000
   16      O       3.6995600000    -0.9315300000     1.4845400000
   17      H       2.8950600000    -0.4775300000     1.2905400000
   18      H       3.5377600000    -1.7529300000     0.9425400000
   19      O       3.3606600000     0.9411300000    -2.2614600000
   20      H       4.0444600000     0.4452100000    -1.7672600000
   21      H       2.5403600000     0.3935200000    -2.2350600000
   22      O       0.0070900000     0.8966200000    -1.8612600000
   23      H      -0.0118400000     0.0823700000    -2.3953600000
   24      H      -0.8831400000     0.8455800000    -1.4937600000
 ----------------------------------------------------------------
 Nuclear Repulsion Energy =         436.99462664 hartrees
 There are       40 alpha and       40 beta electrons
 Requested basis set is cc-pV5Z
 There are 408 shells and 1608 basis functions

 Total QAlloc Memory Limit  48000 MB
 Mega-Array Size      7821 MB
 MEM_STATIC part      8000 MB

 A cutoff of  1.0D-12 yielded  47673 shell pairs
 There are    610043 function pairs (   1000497 Cartesian)
 Smallest overlap matrix eigenvalue = 2.20E-05

 Scale SEOQF with 1.000000e-01/1.000000e-01/1.000000e-01

 Standard Electronic Orientation quadrupole field applied
 Nucleus-field energy     =     0.0000000090 hartrees
 Guess from superposition of atomic densities
 Warning:  Energy on first SCF cycle will be non-variational
 SAD guess density has 80.000000 electrons

 -----------------------------------------------------------------------
  General SCF calculation program by
  Eric Jon Sundstrom, Paul Horn, Yuezhi Mao, Dmitri Zuev, Alec White,
  David Stuck, Shaama M.S., Shane Yost, Joonho Lee, David Small,
  Daniel Levine, Susi Lehtola, Hugh Burton, Evgeny Epifanovsky,
  Bang C. Huynh
 -----------------------------------------------------------------------
 Exchange:     0.2000 Hartree-Fock + 0.0800 Slater + 0.7200 B88
 Correlation:  0.1900 VWN1RPA + 0.8100 LYP
 Using Euler-Maclaurin-Lebedev (75,302) quadrature formula
 A restricted SCF calculation will be
 performed using DIIS
 SCF converges when DIIS error is below 1.0e-08
 ---------------------------------------
  Cycle       Energy         DIIS error
 ---------------------------------------
    1    -611.5087018500      5.79e-03  
    2    -611.3178419651      1.49e-03  
    3    -610.7395285650      2.20e-03  
    4    -611.8239210508      7.85e-05  
    5    -611.8241509799      7.36e-05  
    6    -611.8252671464      7.24e-06  
    7    -611.8252773062      1.20e-06  
    8    -611.8252775164      7.88e-07  
    9    -611.8252776440      1.29e-07  
   10    -611.8252776475      2.07e-08  
   11    -611.8252776476      8.34e-09  Convergence criterion met
 ---------------------------------------
 SCF time:   CPU 264046.29s  wall 8362.00s 
 SCF   energy =  -611.82527765
 Total energy =  -611.82527765

 --------------------------------------------------------------

                    Orbital Energies (a.u.)
 --------------------------------------------------------------

 Alpha MOs
 -- Occupied --
-19.2078 -19.1424 -19.1380 -19.1376 -19.1363 -19.1227 -19.1208 -19.1077
 -1.0816  -1.0372  -1.0347  -1.0224  -1.0178  -1.0062  -0.9938  -0.9863
 -0.5901  -0.5540  -0.5495  -0.5473  -0.5300  -0.5169  -0.5110  -0.5065
 -0.4811  -0.4278  -0.4170  -0.4143  -0.4028  -0.3966  -0.3874  -0.3784
 -0.3775  -0.3383  -0.3368  -0.3298  -0.3277  -0.3119  -0.3052  -0.2987
 -- Virtual --
 -0.0633  -0.0194  -0.0078   0.0056   0.0152   0.0239   0.0462   0.0611
  0.0742   0.0793   0.0966   0.1128   0.1179   0.1249   0.1388   0.1417
  0.1612   0.1736   0.1813   0.1855   0.1973   0.2046   0.2081   0.2116
  0.2196   0.2219   0.2269   0.2321   0.2389   0.2482   0.2515   0.2535
  0.2594   0.2638   0.2688   0.2708   0.2768   0.2856   0.2902   0.2938
  0.2981   0.3104   0.3145   0.3195   0.3229   0.3325   0.3453   0.3529
  0.3543   0.3660   0.3700   0.3819   0.3840   0.3950   0.3992   0.4026
  0.4152   0.4324   0.4401   0.4439   0.4491   0.4604   0.4714   0.4848
  0.4918   0.4997   0.5006   0.5091   0.5191   0.5241   0.5456   0.5468
  0.5552   0.5689   0.5786   0.5846   0.5962   0.6023   0.6146   0.6175
  0.6220   0.6293   0.6491   0.6540   0.6611   0.6740   0.6769   0.6796
  0.6958   0.6964   0.7047   0.7077   0.7206   0.7287   0.7297   0.7406
  0.7456   0.7596   0.7708   0.7730   0.7759   0.7850   0.7935   0.8025
  0.8053   0.8133   0.8173   0.8220   0.8285   0.8345   0.8396   0.8465
  0.8537   0.8650   0.8780   0.8881   0.9085   0.9121   0.9351   0.9370
  0.9542   0.9591   0.9668   0.9806   0.9898   0.9978   1.0029   1.0169
  1.0263   1.0303   1.0430   1.0532   1.0587   1.0740   1.0746   1.0800
  1.0827   1.0923   1.0985   1.1031   1.1089   1.1143   1.1183   1.1304
  1.1355   1.1416   1.1592   1.1659   1.1722   1.1783   1.1929   1.1966
  1.2043   1.2109   1.2199   1.2238   1.2362   1.2412   1.2472   1.2502
  1.2624   1.2786   1.2906   1.2936   1.2965   1.3097   1.3315   1.3346
  1.3444   1.3471   1.3658   1.3695   1.3774   1.4005   1.4148   1.4166
  1.4327   1.4375   1.4430   1.4592   1.4637   1.4756   1.4792   1.4913
  1.5088   1.5131   1.5233   1.5300   1.5309   1.5395   1.5443   1.5528
  1.5622   1.5660   1.5725   1.5772   1.5870   1.5900   1.6028   1.6137
  1.6274   1.6315   1.6348   1.6397   1.6484   1.6531   1.6628   1.6648
  1.6713   1.6815   1.6909   1.6973   1.7038   1.7078   1.7243   1.7264
  1.7316   1.7346   1.7445   1.7505   1.7638   1.7645   1.7741   1.7771
  1.7876   1.7939   1.8018   1.8077   1.8133   1.8161   1.8236   1.8261
  1.8321   1.8405   1.8447   1.8550   1.8730   1.8765   1.8808   1.8878
  1.8971   1.9010   1.9083   1.9171   1.9270   1.9304   1.9350   1.9386
  1.9410   1.9520   1.9562   1.9668   1.9715   1.9761   1.9763   1.9877
  1.9950   2.0042   2.0125   2.0280   2.0289   2.0345   2.0492   2.0637
  2.0663   2.0720   2.0818   2.0870   2.0953   2.1014   2.1205   2.1323
  2.1408   2.1533   2.1566   2.1741   2.1764   2.1945   2.2048   2.2110
  2.2174   2.2262   2.2352   2.2518   2.2677   2.2756   2.2902   2.2989
  2.3034   2.3136   2.3261   2.3306   2.3476   2.3584   2.3619   2.3710
  2.3863   2.4006   2.4100   2.4162   2.4184   2.4262   2.4368   2.4370
  2.4489   2.4672   2.4729   2.4824   2.4960   2.5067   2.5214   2.5300
  2.5390   2.5547   2.5613   2.5678   2.5913   2.5918   2.6035   2.6213
  2.6357   2.6398   2.6608   2.6678   2.6789   2.6801   2.6885   2.6966
  2.6994   2.7110   2.7198   2.7210   2.7431   2.7525   2.7556   2.7592
  2.7651   2.7770   2.7968   2.8008   2.8100   2.8171   2.8273   2.8389
  2.8524   2.8620   2.8726   2.8781   2.8913   2.9041   2.9080   2.9155
  2.9374   2.9386   2.9512   2.9578   2.9608   2.9745   2.9819   2.9894
  2.9963   3.0105   3.0193   3.0245   3.0429   3.0595   3.0690   3.0792
  3.0869   3.0949   3.1004   3.1185   3.1260   3.1310   3.1514   3.1618
  3.1746   3.1941   3.2094   3.2143   3.2333   3.2471   3.2641   3.2675
  3.2802   3.2887   3.2932   3.3066   3.3188   3.3353   3.3436   3.3587
  3.3603   3.3832   3.3858   3.3931   3.4099   3.4179   3.4191   3.4273
  3.4332   3.4401   3.4482   3.4530   3.4609   3.4869   3.4900   3.5058
  3.5090   3.5140   3.5260   3.5367   3.5490   3.5510   3.5759   3.5810
  3.5903   3.6010   3.6157   3.6215   3.6357   3.6359   3.6474   3.6582
  3.6719   3.6745   3.6840   3.6964   3.7107   3.7286   3.7335   3.7480
  3.7636   3.7705   3.7742   3.7811   3.7926   3.8013   3.8034   3.8082
  3.8106   3.8231   3.8332   3.8394   3.8461   3.8724   3.8778   3.8842
  3.8958   3.9117   3.9268   3.9319   3.9374   3.9506   3.9644   3.9810
  3.9894   3.9911   4.0026   4.0228   4.0329   4.0425   4.0670   4.0817
  4.0894   4.0974   4.1165   4.1192   4.1388   4.1725   4.1797   4.1840
  4.2122   4.2288   4.2454   4.2626   4.2650   4.2785   4.2998   4.3125
  4.3202   4.3286   4.3546   4.3679   4.3891   4.4017   4.4074   4.4193
  4.4297   4.4383   4.4413   4.4537   4.4552   4.4613   4.4711   4.4733
  4.4754   4.4767   4.4792   4.4923   4.4996   4.5111   4.5201   4.5230
  4.5288   4.5360   4.5405   4.5457   4.5571   4.5671   4.5705   4.5779
  4.5807   4.5925   4.5977   4.6055   4.6136   4.6190   4.6226   4.6267
  4.6310   4.6354   4.6378   4.6491   4.6537   4.6611   4.6779   4.6814
  4.6863   4.6918   4.6997   4.7146   4.7181   4.7242   4.7333   4.7385
  4.7470   4.7691   4.7712   4.7806   4.7904   4.7980   4.8069   4.8157
  4.8208   4.8345   4.8429   4.8482   4.8577   4.8670   4.8739   4.8763
  4.8785   4.8887   4.8953   4.9001   4.9045   4.9220   4.9287   4.9354
  4.9393   4.9523   4.9561   4.9784   4.9843   4.9942   5.0078   5.0118
  5.0252   5.0332   5.0396   5.0526   5.0623   5.0699   5.0749   5.0820
  5.0899   5.0970   5.1095   5.1156   5.1363   5.1449   5.1576   5.1698
  5.1782   5.1901   5.1927   5.2097   5.2268   5.2339   5.2481   5.2625
  5.2798   5.2843   5.3061   5.3070   5.3252   5.3307   5.3427   5.3593
  5.3677   5.3799   5.3970   5.4080   5.4192   5.4332   5.4552   5.4720
  5.4748   5.4873   5.4934   5.5020   5.5207   5.5368   5.5431   5.5726
  5.6032   5.6245   5.6421   5.6567   5.6777   5.6794   5.6898   5.6976
  5.7098   5.7272   5.7362   5.7714   5.7820   5.8127   5.8237   5.8458
  5.8696   5.8726   5.9085   5.9230   5.9331   5.9528   5.9571   5.9660
  6.0092   6.0387   6.0392   6.0514   6.0625   6.0789   6.1092   6.1277
  6.1368   6.1658   6.1781   6.1990   6.2081   6.2252   6.2412   6.2529
  6.2585   6.2661   6.2762   6.2873   6.2909   6.2977   6.3101   6.3290
  6.3341   6.3479   6.3575   6.3715   6.3787   6.3902   6.4059   6.4227
  6.4512   6.4601   6.4783   6.4992   6.5099   6.5402   6.5560   6.5592
  6.5840   6.5881   6.6130   6.6236   6.6262   6.6531   6.6673   6.6774
  6.6799   6.6895   6.6952   6.7028   6.7163   6.7294   6.7387   6.7492
  6.7541   6.7588   6.7646   6.7690   6.7744   6.7805   6.7939   6.8150
  6.8152   6.8215   6.8281   6.8386   6.8671   6.8743   6.8783   6.8863
  6.8984   6.9099   6.9127   6.9204   6.9270   6.9356   6.9499   6.9675
  6.9754   6.9861   6.9946   7.0064   7.0180   7.0487   7.0547   7.0623
  7.0722   7.0785   7.0897   7.1077   7.1266   7.1441   7.1543   7.1642
  7.1745   7.1857   7.1919   7.2106   7.2167   7.2335   7.2505   7.2727
  7.2763   7.2824   7.2924   7.3003   7.3109   7.3306   7.3508   7.3532
  7.3634   7.3696   7.3963   7.4090   7.4211   7.4286   7.4395   7.4458
  7.4638   7.4759   7.4997   7.5104   7.5254   7.5467   7.5670   7.5931
  7.6045   7.6167   7.6276   7.6358   7.6449   7.6564   7.6728   7.6782
  7.6922   7.7005   7.7216   7.7302   7.7398   7.7608   7.7785   7.7923
  7.7958   7.8185   7.8263   7.8351   7.8369   7.8591   7.8615   7.9006
  7.9141   7.9195   7.9615   7.9693   7.9799   8.0165   8.0361   8.0432
  8.0862   8.0925   8.1118   8.1425   8.1582   8.1948   8.2058   8.2298
  8.2655   8.2948   8.3058   8.3535   8.3949   8.4194   8.4512   8.4732
  8.5405   8.5511   8.6084   8.6223   8.7264   8.7415   8.8814   8.9086
  8.9481   8.9619   8.9717   8.9934   9.0464   9.0502   9.0655   9.0835
  9.1078   9.1118   9.1425   9.1596   9.1925   9.1955   9.2291   9.2537
  9.2585   9.2933   9.3310   9.3510   9.3828   9.3888   9.3989   9.4368
  9.5862   9.6217   9.6430   9.6574   9.6870   9.7055   9.7192   9.7278
  9.7360   9.7382   9.7483   9.7620   9.7780   9.7946   9.8108   9.8491
  9.8852   9.9045   9.9172   9.9304   9.9541  10.0025  10.0117  10.0834
 11.6412  11.6993  11.7068  11.7149  11.7277  11.7351  11.7423  11.7522
 11.7549  11.7635  11.7663  11.7696  11.7723  11.7833  11.7917  11.8056
 11.8150  11.8202  11.8319  11.8378  11.8413  11.8539  11.8640  11.8661
 11.8783  11.8909  11.9085  11.9177  11.9343  11.9402  11.9432  11.9474
 11.9613  11.9658  12.0010  12.0111  12.0193  12.0217  12.0449  12.0676
 12.0716  12.0762  12.0805  12.0909  12.0963  12.1046  12.1107  12.1176
 12.1240  12.1278  12.1343  12.1509  12.1539  12.1626  12.1666  12.1745
 12.1773  12.1790  12.1805  12.1840  12.1915  12.1940  12.2013  12.2067
 12.2125  12.2153  12.2181  12.2219  12.2224  12.2267  12.2312  12.2370
 12.2422  12.2493  12.2558  12.2643  12.2674  12.2747  12.2788  12.2861
 12.2971  12.3015  12.3041  12.3127  12.3197  12.3213  12.3286  12.3335
 12.3409  12.3478  12.3519  12.3703  12.3777  12.3918  12.3966  12.4040
 12.4120  12.4170  12.4316  12.4380  12.4488  12.4550  12.4604  12.4702
 12.4864  12.4947  12.5018  12.5149  12.5293  12.5423  12.5495  12.5582
 12.5609  12.5632  12.5839  12.5924  12.6024  12.6159  12.6338  12.6480
 12.6535  12.6643  12.6673  12.6753  12.6832  12.6935  12.6980  12.7020
 12.7037  12.7151  12.7182  12.7277  12.7297  12.7347  12.7432  12.7502
 12.7567  12.7723  12.7885  12.7900  12.8123  12.8133  12.8209  12.8363
 12.8460  12.8634  12.8656  12.8784  12.8888  12.9011  12.9017  12.9170
 12.9262  12.9447  12.9497  12.9568  12.9720  12.9988  13.0050  13.0149
 13.0355  13.0392  13.1039  13.1381  13.1510  13.1577  13.1749  13.1867
 13.2214  13.2260  13.2377  13.2418  13.2518  13.2661  13.2734  13.2911
 13.2927  13.3048  13.3117  13.3224  13.3248  13.3326  13.3367  13.3391
 13.3532  13.3607  13.3709  13.3775  13.3785  13.3840  13.3884  13.3900
 13.3968  13.4003  13.4088  13.4131  13.4242  13.4267  13.4298  13.4358
 13.4483  13.4515  13.4623  13.4672  13.4765  13.4796  13.4859  13.4931
 13.4978  13.5090  13.5100  13.5181  13.5272  13.5312  13.5337  13.5364
 13.5411  13.5493  13.5566  13.5679  13.5732  13.5741  13.5781  13.5883
 13.6010  13.6089  13.6141  13.6164  13.6251  13.6309  13.6320  13.6409
 13.6456  13.6549  13.6639  13.6711  13.6798  13.6940  13.7046  13.7121
 13.7213  13.7353  13.7451  13.7512  13.7626  13.7798  13.7954  13.8064
 13.8098  13.8222  13.8313  13.8445  13.8549  13.8710  13.8725  13.8751
 13.8807  13.8997  13.9015  13.9173  13.9303  13.9399  13.9515  13.9674
 13.9823  13.9862  14.0077  14.0237  14.0294  14.0550  14.0644  14.0747
 14.0853  14.1133  14.1175  14.1355  14.1405  14.1502  14.1511  14.1542
 14.1834  14.1933  14.2099  14.2278  14.2396  14.2621  14.2897  14.2925
 14.3153  14.3490  14.3587  14.3931  14.4085  14.4344  14.4645  14.4738
 14.5089  14.5317  14.5690  14.5718  14.6070  14.6738  14.7026  14.7407
 14.7483  14.7766  14.8120  14.8413  14.8591  14.9660  14.9789  15.0494
 15.1211  15.1587  15.2301  15.2535  15.3339  15.3482  15.3716  15.3768
 15.4077  15.4449  15.4615  15.4710  15.4967  15.5135  15.5635  15.5785
 15.5943  15.6012  15.6585  15.6829  15.7164  15.7259  15.7296  15.7356
 15.7380  15.7548  15.7760  15.7900  15.8021  15.8319  15.8453  15.8492
 15.8618  15.8736  15.8973  15.9039  15.9205  15.9249  15.9440  15.9822
 15.9879  15.9952  16.0033  16.0201  16.0346  16.0388  16.0523  16.0541
 16.0619  16.0726  16.0802  16.0841  16.0962  16.1003  16.1030  16.1143
 16.1227  16.1316  16.1346  16.1417  16.1583  16.1651  16.1721  16.1781
 16.1815  16.1880  16.1891  16.2063  16.2204  16.2245  16.2479  16.2490
 16.2732  16.2778  16.2809  16.2923  16.2983  16.3075  16.3136  16.3265
 16.3395  16.3531  16.3661  16.3721  16.4064  16.4222  16.4318  16.4528
 16.4717  16.4812  16.4935  16.4951  16.5045  16.5348  16.5642  16.5791
 16.5998  16.6688  16.6932  16.7059  16.7363  16.7573  16.8260  16.8584
 16.8722  16.9621  16.9980  17.0250  17.0494  17.0617  17.0766  17.0936
 17.1428  17.1565  17.1688  17.1916  17.1952  17.1975  17.2102  17.2342
 17.2383  17.2553  17.2729  17.2851  17.3011  17.3117  17.3180  17.3245
 17.3700  17.4107  17.4178  17.4204  17.4490  17.4679  17.4772  17.4959
 17.5041  17.5320  17.5445  17.5540  17.5579  17.5735  17.5830  17.6048
 17.6236  17.6456  17.6605  17.6763  17.6871  17.7424  17.7562  17.8079
 17.8152  17.8196  17.8276  17.8348  17.8430  17.9357  17.9411  17.9608
 18.0043  18.0245  18.0586  18.0705  18.0749  18.0948  18.1099  18.1447
 18.1643  18.1751  18.1849  18.2021  18.2080  18.2174  18.2314  18.2453
 18.2594  18.2808  18.2814  18.2991  18.3096  18.3384  18.3463  18.3524
 18.3612  18.3702  18.3738  18.4076  18.4151  18.4282  18.4539  18.4573
 18.4656  18.4689  18.4813  18.4910  18.4963  18.5284  18.5421  18.5695
 18.5856  18.5944  18.6166  18.6356  18.6760  18.7028  18.7182  18.7227
 18.7369  18.7390  18.7426  18.7601  18.7768  18.7824  18.8030  18.8347
 18.8430  18.8811  18.8925  18.8957  18.9255  18.9508  18.9677  18.9894
 19.0028  19.0210  19.0723  19.1659  19.1709  19.2113  19.2523  19.2634
 19.2702  19.2712  19.3053  19.3355  19.3414  19.3511  19.3619  19.3829
 19.3900  19.4037  19.4109  19.4407  19.4580  19.4684  19.4745  19.4845
 19.4892  19.5001  19.5040  19.5053  19.5105  19.5145  19.5208  19.5456
 19.5763  19.5858  19.6042  19.6178  19.6368  19.6542  19.6780  19.7190
 19.7264  19.7601  19.7872  19.8110  19.8639  19.9025  19.9286  19.9982
 20.5176  20.5628  20.5710  20.6278  20.6700  20.7069  20.7082  20.7479
 20.7918  20.8156  20.8393  20.8510  20.8796  20.9369  20.9703  20.9974
 21.8682  21.8796  21.9083  21.9110  21.9379  21.9402  21.9506  21.9583
 21.9935  22.0117  22.0160  22.0369  22.0416  22.0474  22.0728  22.1113
 22.2469  22.2631  22.2874  22.2918  22.3048  22.3137  22.3315  22.3727
 22.4347  22.4590  22.6435  22.6828  22.7348  22.7591  22.7791  22.7824
 22.8408  22.8512  22.8673  22.8740  22.9169  22.9602  22.9628  23.0161
 23.0809  23.1128  23.1233  23.1352  23.1692  23.1861  23.2657  23.2706
 23.3540  23.3912  23.4144  23.4339  23.5023  23.5435  23.6464  23.6520
 24.0157  24.2100  24.3049  24.3147  24.3181  24.3428  24.4013  24.4196
 24.4320  24.5363  24.5677  24.6372  24.7180  24.7550  24.9060  24.9284
 24.9738  25.0108  25.1289  25.1406  25.2010  25.2640  25.2788  25.3707
 25.3923  25.6112  25.8014  25.9102  26.0117  26.1384  26.2829  26.3868
 63.8518  63.9570  64.1385  64.1519  64.2630  64.3413  64.5140  64.7201
 --------------------------------------------------------------


                        RESTRICTED (RHF) MOLECULAR ORBITAL COEFFICIENTS
                         1         2         3         4         5         6
 eigenvalues:        -19.208   -19.142   -19.138   -19.138   -19.136   -19.123
   1  O 1   s       -0.00002   0.00002   0.97868  -0.00213   0.00032  -0.00003
   2  O 1   s       -0.00002   0.00001   0.03121  -0.00012   0.00001   0.00001
   3  O 1   s       -0.00004   0.00002   0.08544  -0.00025   0.00003  -0.00000
   4  O 1   s        0.00006  -0.00007  -0.01620   0.00009  -0.00011   0.00036
   5  O 1   s        0.00068   0.00008  -0.01788   0.00036   0.00059  -0.00234
   6  O 1   s        0.00131   0.00024  -0.00588  -0.00057   0.00047  -0.00027
   7  O 1   px       0.00000  -0.00000  -0.00074   0.00000  -0.00000  -0.00000
   8  O 1   py       0.00000   0.00000  -0.00042  -0.00000   0.00000   0.00000
   9  O 1   pz       0.00000  -0.00000  -0.00068   0.00000   0.00000   0.00001
  10  O 1   px       0.00001   0.00000  -0.00052   0.00001   0.00002  -0.00001
  11  O 1   py       0.00001  -0.00001  -0.00028   0.00001   0.00001  -0.00002
  12  O 1   pz      -0.00003   0.00001  -0.00055   0.00003  -0.00004  -0.00006
  13  O 1   px      -0.00022   0.00001   0.00691  -0.00007  -0.00013   0.00011
  14  O 1   py      -0.00028   0.00008   0.00369  -0.00006  -0.00020   0.00003
  15  O 1   pz       0.00012  -0.00006   0.00674  -0.00021   0.00019   0.00041
  16  O 1   px      -0.00065   0.00001   0.00147  -0.00013  -0.00048   0.00045
  17  O 1   py      -0.00127   0.00017   0.00008  -0.00009  -0.00093  -0.00003
  18  O 1   pz       0.00092  -0.00026   0.00060   0.00010   0.00050   0.00084
  19  O 1   px      -0.00017   0.00008   0.00065   0.00015   0.00002  -0.00077
  20  O 1   py      -0.00021  -0.00003  -0.00011  -0.00003  -0.00015   0.00014
  21  O 1   pz       0.00013  -0.00003   0.00009   0.00004   0.00037  -0.00007
  22  O 1   d 1     -0.00000  -0.00000   0.00016  -0.00000   0.00000   0.00000
  23  O 1   d 2      0.00000  -0.00000  -0.00016   0.00000  -0.00000   0.00000
  24  O 1   d 3     -0.00000   0.00000   0.00005  -0.00000   0.00000   0.00000
  25  O 1   d 4      0.00000   0.00000   0.00006  -0.00000  -0.00000  -0.00000
  26  O 1   d 5      0.00000  -0.00000  -0.00008  -0.00000   0.00000   0.00000
  27  O 1   d 1     -0.00000   0.00001  -0.00028  -0.00000  -0.00002  -0.00000
  28  O 1   d 2     -0.00001   0.00000   0.00027  -0.00000  -0.00000  -0.00002
  29  O 1   d 3      0.00001  -0.00001  -0.00008   0.00001  -0.00000  -0.00000
  30  O 1   d 4      0.00000  -0.00000  -0.00013   0.00001   0.00002   0.00001
  31  O 1   d 5     -0.00001   0.00000   0.00012   0.00000  -0.00001  -0.00000
  32  O 1   d 1      0.00020  -0.00007  -0.00217   0.00005   0.00022  -0.00001
  33  O 1   d 2      0.00001  -0.00003   0.00236  -0.00004   0.00004   0.00022
  34  O 1   d 3     -0.00015   0.00008  -0.00069   0.00008  -0.00009  -0.00010
  35  O 1   d 4     -0.00005   0.00003  -0.00068  -0.00001  -0.00016  -0.00012
  36  O 1   d 5      0.00001   0.00001   0.00105  -0.00002   0.00003   0.00005
  37  O 1   d 1      0.00027  -0.00005   0.00085   0.00002   0.00044  -0.00012
  38  O 1   d 2      0.00001  -0.00013  -0.00020  -0.00016  -0.00008   0.00026
  39  O 1   d 3     -0.00030   0.00011   0.00045   0.00006  -0.00010  -0.00026
  40  O 1   d 4     -0.00022   0.00007   0.00052   0.00007  -0.00035   0.00004
  41  O 1   d 5     -0.00001  -0.00005  -0.00036   0.00000   0.00025   0.00045
  42  O 1   f 1      0.00000  -0.00000  -0.00003   0.00000   0.00000  -0.00000
  43  O 1   f 2     -0.00000  -0.00000   0.00006   0.00000   0.00001   0.00000
  44  O 1   f 3      0.00000   0.00000   0.00013   0.00000   0.00000   0.00000
  45  O 1   f 4      0.00000   0.00000  -0.00006   0.00001   0.00000  -0.00000
  46  O 1   f 5     -0.00000   0.00000  -0.00000  -0.00000  -0.00000  -0.00001
  47  O 1   f 6      0.00000  -0.00000   0.00001   0.00000   0.00001   0.00000
  48  O 1   f 7     -0.00000   0.00000   0.00008  -0.00000  -0.00001   0.00001
  49  O 1   f 1     -0.00002   0.00000   0.00025  -0.00000  -0.00002   0.00002
  50  O 1   f 2      0.00002   0.00001  -0.00048  -0.00001  -0.00002  -0.00002
  51  O 1   f 3      0.00001  -0.00000  -0.00109   0.00000  -0.00000  -0.00004
  52  O 1   f 4     -0.00001  -0.00001   0.00056  -0.00004  -0.00002   0.00002
  53  O 1   f 5      0.00001  -0.00001   0.00005   0.00000   0.00002   0.00004
  54  O 1   f 6     -0.00002   0.00000  -0.00008  -0.00000  -0.00002  -0.00001
  55  O 1   f 7      0.00003  -0.00001  -0.00073   0.00001   0.00003  -0.00004
  56  O 1   f 1     -0.00002   0.00003  -0.00008   0.00000  -0.00012  -0.00011
  57  O 1   f 2      0.00007   0.00005   0.00011   0.00005   0.00005  -0.00008
  58  O 1   f 3     -0.00006   0.00003   0.00043   0.00008   0.00001  -0.00011
  59  O 1   f 4     -0.00005  -0.00004  -0.00021  -0.00005  -0.00009   0.00004
  60  O 1   f 5      0.00004  -0.00005  -0.00006  -0.00004   0.00010  -0.00003
  61  O 1   f 6     -0.00005  -0.00003  -0.00007  -0.00003   0.00006   0.00003
  62  O 1   f 7      0.00005   0.00001   0.00026   0.00000  -0.00007  -0.00002
  63  O 1   g 1     -0.00000   0.00000   0.00005  -0.00000   0.00000   0.00000
  64  O 1   g 2      0.00000   0.00000   0.00000   0.00000   0.00000   0.00000
  65  O 1   g 3     -0.00000   0.00000   0.00011   0.00000  -0.00000   0.00000
  66  O 1   g 4     -0.00000  -0.00000   0.00007  -0.00000   0.00000   0.00000
  67  O 1   g 5     -0.00000  -0.00000  -0.00007   0.00000  -0.00000  -0.00000
  68  O 1   g 6     -0.00000  -0.00000  -0.00007  -0.00000  -0.00000   0.00000
  69  O 1   g 7     -0.00000  -0.00000   0.00001  -0.00000   0.00000   0.00000
  70  O 1   g 8     -0.00000  -0.00000  -0.00000  -0.00000   0.00000  -0.00000
  71  O 1   g 9     -0.00000   0.00000   0.00008  -0.00000  -0.00000  -0.00000
  72  O 1   g 1     -0.00001   0.00000   0.00001  -0.00000   0.00001   0.00001
  73  O 1   g 2     -0.00002  -0.00001   0.00001  -0.00001  -0.00001  -0.00000
  74  O 1   g 3     -0.00001  -0.00001   0.00002  -0.00001   0.00001   0.00002
  75  O 1   g 4      0.00004  -0.00000  -0.00001  -0.00002   0.00001   0.00001
  76  O 1   g 5      0.00001   0.00000   0.00001   0.00002   0.00002   0.00000
  77  O 1   g 6      0.00002   0.00001  -0.00001   0.00002   0.00001  -0.00002
  78  O 1   g 7      0.00002   0.00001   0.00004   0.00001  -0.00001  -0.00001
  79  O 1   g 8      0.00002   0.00000  -0.00002   0.00001   0.00000   0.00001
  80  O 1   g 9     -0.00001   0.00000   0.00001  -0.00000  -0.00001   0.00001
  81  O 1   h 1      0.00000  -0.00000  -0.00005   0.00000  -0.00000  -0.00000
  82  O 1   h 2     -0.00000   0.00000   0.00002  -0.00000   0.00000  -0.00000
  83  O 1   h 3      0.00000   0.00000  -0.00001   0.00000   0.00000  -0.00000
  84  O 1   h 4     -0.00000   0.00000  -0.00002   0.00000  -0.00000  -0.00000
  85  O 1   h 5     -0.00000   0.00000  -0.00002   0.00000   0.00000   0.00000
  86  O 1   h 6      0.00000   0.00000  -0.00002  -0.00000  -0.00000  -0.00000
  87  O 1   h 7     -0.00000  -0.00000   0.00004  -0.00000  -0.00000   0.00000
  88  O 1   h 8     -0.00000  -0.00000  -0.00003   0.00000  -0.00000  -0.00000
  89  O 1   h 9     -0.00000   0.00000   0.00001  -0.00000  -0.00000  -0.00000
  90  O 1   h10     -0.00000  -0.00000   0.00001  -0.00000  -0.00000   0.00000
  91  O 1   h11      0.00000   0.00000   0.00000  -0.00000   0.00000   0.00000
  92  H 1   s        0.00001   0.00000  -0.00023  -0.00000   0.00000  -0.00001
  93  H 1   s        0.00007  -0.00005  -0.00160   0.00003   0.00010  -0.00001
  94  H 1   s       -0.00176   0.00027   0.01094  -0.00040  -0.00138   0.00084
  95  H 1   s       -0.00094   0.00019   0.00441   0.00011  -0.00095  -0.00062
  96  H 1   s       -0.00016  -0.00015  -0.00033  -0.00000  -0.00032   0.00023
  97  H 1   px       0.00001  -0.00001  -0.00014   0.00000   0.00000  -0.00000
  98  H 1   py       0.00001  -0.00000  -0.00018   0.00000  -0.00000  -0.00000
  99  H 1   pz      -0.00001  -0.00000   0.00003   0.00000  -0.00000   0.00000
 100  H 1   px      -0.00002   0.00003   0.00014  -0.00002  -0.00002  -0.00000
 101  H 1   py      -0.00002   0.00001   0.00016  -0.00000   0.00002   0.00002
 102  H 1   pz       0.00003   0.00001  -0.00009  -0.00002   0.00001  -0.00001
 103  H 1   px      -0.00029  -0.00001   0.00535  -0.00008  -0.00013   0.00035
 104  H 1   py      -0.00045   0.00008   0.00724  -0.00014  -0.00064   0.00021
 105  H 1   pz      -0.00016  -0.00008  -0.00045   0.00001  -0.00011   0.00003
 106  H 1   px      -0.00090   0.00010   0.00198  -0.00007  -0.00017   0.00028
 107  H 1   py      -0.00123   0.00024   0.00322  -0.00005  -0.00065  -0.00029
 108  H 1   pz      -0.00007  -0.00010  -0.00019  -0.00003  -0.00008   0.00009
 109  H 1   d 1      0.00003  -0.00000  -0.00014   0.00000   0.00000   0.00000
 110  H 1   d 2     -0.00000   0.00000   0.00001  -0.00000   0.00001  -0.00000
 111  H 1   d 3     -0.00002   0.00000   0.00008  -0.00000  -0.00001   0.00001
 112  H 1   d 4      0.00000  -0.00000   0.00001   0.00000  -0.00000  -0.00000
 113  H 1   d 5     -0.00001  -0.00001   0.00003  -0.00000  -0.00001  -0.00000
 114  H 1   d 1     -0.00020   0.00003   0.00231  -0.00003  -0.00006   0.00004
 115  H 1   d 2      0.00000  -0.00002  -0.00027   0.00000  -0.00003  -0.00000
 116  H 1   d 3      0.00013  -0.00001  -0.00133   0.00002   0.00007  -0.00005
 117  H 1   d 4     -0.00002   0.00001  -0.00020  -0.00001   0.00001   0.00000
 118  H 1   d 5      0.00006   0.00002  -0.00060   0.00001   0.00008   0.00001
 119  H 1   d 1      0.00005   0.00001   0.00305  -0.00003  -0.00007   0.00011
 120  H 1   d 2     -0.00012  -0.00005  -0.00029  -0.00001  -0.00004   0.00005
 121  H 1   d 3     -0.00000  -0.00001  -0.00196   0.00001   0.00008  -0.00001
 122  H 1   d 4     -0.00004  -0.00007  -0.00029  -0.00002  -0.00006   0.00001
 123  H 1   d 5      0.00003  -0.00010  -0.00113  -0.00000   0.00023   0.00013
 124  H 1   f 1      0.00000  -0.00000   0.00011  -0.00000   0.00000   0.00000
 125  H 1   f 2     -0.00000  -0.00000  -0.00003   0.00000   0.00000  -0.00000
 126  H 1   f 3     -0.00000  -0.00000  -0.00016   0.00000   0.00001  -0.00000
 127  H 1   f 4      0.00000   0.00000   0.00003  -0.00000   0.00000  -0.00000
 128  H 1   f 5     -0.00000  -0.00000  -0.00011   0.00000   0.00000  -0.00000
 129  H 1   f 6      0.00000  -0.00000   0.00001   0.00000   0.00000   0.00000
 130  H 1   f 7     -0.00000  -0.00000  -0.00024   0.00000   0.00001  -0.00000
 131  H 1   f 1     -0.00002   0.00001   0.00042  -0.00001   0.00004   0.00003
 132  H 1   f 2     -0.00002  -0.00001  -0.00023  -0.00000  -0.00001   0.00001
 133  H 1   f 3      0.00008   0.00000  -0.00075   0.00001   0.00003  -0.00001
 134  H 1   f 4      0.00001   0.00001   0.00017   0.00001   0.00000   0.00000
 135  H 1   f 5      0.00005   0.00001  -0.00056   0.00001   0.00000  -0.00001
 136  H 1   f 6     -0.00000   0.00002   0.00008  -0.00000   0.00001  -0.00001
 137  H 1   f 7      0.00011  -0.00001  -0.00118   0.00000   0.00003  -0.00000
 138  H 1   g 1      0.00001  -0.00000  -0.00008   0.00000   0.00001   0.00000
 139  H 1   g 2     -0.00000   0.00000  -0.00000   0.00000   0.00000  -0.00000
 140  H 1   g 3      0.00001   0.00000  -0.00010   0.00000   0.00000  -0.00000
 141  H 1   g 4      0.00000   0.00000   0.00002   0.00000   0.00000  -0.00000
 142  H 1   g 5     -0.00000  -0.00000   0.00007  -0.00000  -0.00000  -0.00000
 143  H 1   g 6      0.00000   0.00000   0.00002  -0.00000   0.00000   0.00000
 144  H 1   g 7     -0.00000  -0.00000   0.00004   0.00000  -0.00000   0.00000
 145  H 1   g 8      0.00000   0.00000   0.00003   0.00000   0.00000  -0.00000
 146  H 1   g 9      0.00000  -0.00000  -0.00013   0.00000  -0.00000  -0.00000
 147  H 2   s       -0.00000   0.00000  -0.00020   0.00000  -0.00000  -0.00001
 148  H 2   s       -0.00000   0.00000  -0.00175   0.00002  -0.00005  -0.00011
 149  H 2   s        0.00085  -0.00051   0.01071  -0.00049   0.00054   0.00174
 150  H 2   s        0.00033  -0.00025   0.00381   0.00016   0.00078   0.00037
 151  H 2   s        0.00000  -0.00002  -0.00049  -0.00014   0.00040   0.00006
 152  H 2   px      -0.00000   0.00000  -0.00005   0.00001  -0.00000   0.00000
 153  H 2   py      -0.00000  -0.00000   0.00010  -0.00001   0.00001   0.00000
 154  H 2   pz      -0.00000   0.00000  -0.00018   0.00002   0.00000  -0.00000
 155  H 2   px       0.00001  -0.00001  -0.00000  -0.00002   0.00001  -0.00001
 156  H 2   py      -0.00001   0.00000  -0.00013   0.00003  -0.00003  -0.00000
 157  H 2   pz       0.00002  -0.00002   0.00003  -0.00010  -0.00001  -0.00000
 158  H 2   px       0.00011   0.00002   0.00217  -0.00005  -0.00009   0.00020
 159  H 2   py      -0.00001   0.00011  -0.00281   0.00014   0.00001  -0.00027
 160  H 2   pz       0.00023  -0.00016   0.00817  -0.00014   0.00030   0.00080
 161  H 2   px       0.00010  -0.00003   0.00066   0.00024  -0.00022   0.00032
 162  H 2   py      -0.00010   0.00008  -0.00083  -0.00037  -0.00006  -0.00023
 163  H 2   pz       0.00032  -0.00018   0.00304   0.00091   0.00046   0.00041
 164  H 2   d 1     -0.00000   0.00000   0.00003  -0.00001  -0.00000   0.00001
 165  H 2   d 2     -0.00000  -0.00000   0.00011  -0.00002   0.00001   0.00000
 166  H 2   d 3     -0.00000  -0.00000  -0.00014   0.00001  -0.00000  -0.00001
 167  H 2   d 4     -0.00000  -0.00000  -0.00008   0.00001  -0.00000  -0.00000
 168  H 2   d 5     -0.00000  -0.00000   0.00002  -0.00001  -0.00000  -0.00001
 169  H 2   d 1     -0.00000   0.00000  -0.00039   0.00004   0.00002  -0.00003
 170  H 2   d 2     -0.00000   0.00003  -0.00150   0.00011  -0.00005  -0.00008
 171  H 2   d 3      0.00004  -0.00002   0.00197  -0.00003   0.00005   0.00012
 172  H 2   d 4      0.00005   0.00000   0.00103  -0.00004   0.00001   0.00003
 173  H 2   d 5      0.00002   0.00001  -0.00019   0.00006   0.00001   0.00002
 174  H 2   d 1      0.00001  -0.00001  -0.00061  -0.00001   0.00004  -0.00002
 175  H 2   d 2      0.00006   0.00005  -0.00185   0.00002   0.00006  -0.00014
 176  H 2   d 3     -0.00000  -0.00003   0.00296  -0.00018   0.00020   0.00020
 177  H 2   d 4      0.00003   0.00003   0.00140  -0.00008  -0.00014   0.00012
 178  H 2   d 5      0.00002   0.00002  -0.00008  -0.00011  -0.00007  -0.00005
 179  H 2   f 1     -0.00000  -0.00000  -0.00000  -0.00000  -0.00000  -0.00000
 180  H 2   f 2     -0.00000   0.00000  -0.00009   0.00000   0.00000  -0.00000
 181  H 2   f 3     -0.00000   0.00000  -0.00021   0.00000  -0.00001  -0.00001
 182  H 2   f 4      0.00000  -0.00000   0.00016  -0.00000   0.00000   0.00001
 183  H 2   f 5      0.00000   0.00000   0.00016  -0.00000   0.00001   0.00000
 184  H 2   f 6      0.00000   0.00000  -0.00002   0.00000   0.00001  -0.00000
 185  H 2   f 7      0.00000   0.00000  -0.00002  -0.00001  -0.00000   0.00000
 186  H 2   f 1     -0.00000  -0.00000  -0.00001   0.00001   0.00001  -0.00000
 187  H 2   f 2      0.00000  -0.00000  -0.00048   0.00003   0.00002  -0.00001
 188  H 2   f 3      0.00002   0.00001  -0.00107   0.00003   0.00001  -0.00004
 189  H 2   f 4      0.00001   0.00000   0.00084   0.00006   0.00006   0.00004
 190  H 2   f 5      0.00002   0.00001   0.00072   0.00000  -0.00003   0.00001
 191  H 2   f 6      0.00003   0.00001  -0.00020   0.00001  -0.00003  -0.00001
 192  H 2   f 7      0.00000  -0.00000  -0.00010   0.00003   0.00002  -0.00001
 193  H 2   g 1     -0.00000  -0.00000   0.00001  -0.00000  -0.00000   0.00000
 194  H 2   g 2     -0.00000  -0.00000  -0.00000   0.00000   0.00000   0.00000
 195  H 2   g 3     -0.00000  -0.00000  -0.00009   0.00001   0.00000  -0.00000
 196  H 2   g 4      0.00000   0.00000  -0.00015   0.00001  -0.00000  -0.00000
 197  H 2   g 5      0.00000   0.00000   0.00005   0.00000   0.00001   0.00000
 198  H 2   g 6      0.00000   0.00000   0.00011  -0.00001  -0.00000   0.00000
 199  H 2   g 7      0.00000   0.00000  -0.00003   0.00000  -0.00000  -0.00000
 200  H 2   g 8      0.00000   0.00000  -0.00003   0.00000   0.00000   0.00000
 201  H 2   g 9      0.00000   0.00000  -0.00000   0.00000   0.00000  -0.00000
 202  O 2   s        0.00001  -0.97857   0.00001  -0.00001   0.00000   0.00000
 203  O 2   s        0.00003  -0.03107  -0.00001  -0.00000   0.00000   0.00000
 204  O 2   s        0.00007  -0.08528  -0.00001   0.00000   0.00001   0.00000
 205  O 2   s       -0.00024   0.01584   0.00006  -0.00010  -0.00002  -0.00001
 206  O 2   s        0.00029   0.01692   0.00007   0.00075  -0.00008   0.00005
 207  O 2   s        0.00053   0.00455   0.00007   0.00089  -0.00021  -0.00002
 208  O 2   px       0.00001  -0.00025   0.00000   0.00000  -0.00000   0.00000
 209  O 2   py      -0.00000   0.00078   0.00000   0.00000   0.00000   0.00000
 210  O 2   pz       0.00001  -0.00083   0.00000   0.00000   0.00000   0.00000
 211  O 2   px      -0.00003  -0.00034  -0.00000  -0.00000   0.00001  -0.00000
 212  O 2   py       0.00003   0.00059  -0.00001   0.00000  -0.00000  -0.00000
 213  O 2   pz      -0.00009  -0.00048  -0.00000  -0.00001  -0.00000  -0.00000
 214  O 2   px      -0.00001   0.00401   0.00002   0.00000  -0.00010   0.00000
 215  O 2   py       0.00001  -0.00712  -0.00000  -0.00004   0.00001  -0.00000
 216  O 2   pz       0.00028   0.00651   0.00002   0.00009   0.00000   0.00001
 217  O 2   px       0.00033   0.00108  -0.00018   0.00016  -0.00016   0.00004
 218  O 2   py      -0.00006  -0.00059   0.00011  -0.00031  -0.00007   0.00000
 219  O 2   pz       0.00007   0.00068   0.00005   0.00024  -0.00007  -0.00001
 220  O 2   px       0.00021  -0.00028  -0.00011  -0.00005  -0.00004   0.00004
 221  O 2   py      -0.00011   0.00018   0.00001  -0.00012  -0.00001  -0.00001
 222  O 2   pz      -0.00016   0.00064   0.00010   0.00013   0.00001  -0.00004
 223  O 2   d 1     -0.00000   0.00005   0.00000   0.00000  -0.00000   0.00000
 224  O 2   d 2     -0.00000   0.00017   0.00000  -0.00000  -0.00000   0.00000
 225  O 2   d 3      0.00000   0.00007   0.00000  -0.00000  -0.00000  -0.00000
 226  O 2   d 4      0.00001   0.00010   0.00000   0.00000  -0.00000   0.00000
 227  O 2   d 5     -0.00000  -0.00015  -0.00000   0.00000  -0.00000  -0.00000
 228  O 2   d 1      0.00001  -0.00010  -0.00000  -0.00001   0.00000  -0.00000
 229  O 2   d 2      0.00002  -0.00031  -0.00000   0.00000   0.00000  -0.00000
 230  O 2   d 3     -0.00000  -0.00014  -0.00000   0.00001   0.00000   0.00000
 231  O 2   d 4     -0.00004  -0.00014  -0.00000   0.00000   0.00000  -0.00000
 232  O 2   d 5      0.00001   0.00026   0.00000  -0.00000   0.00000   0.00000
 233  O 2   d 1     -0.00003  -0.00092   0.00002   0.00002   0.00002   0.00000
 234  O 2   d 2     -0.00012  -0.00178   0.00000  -0.00004  -0.00000   0.00000
 235  O 2   d 3      0.00009  -0.00092   0.00002  -0.00003  -0.00000  -0.00000
 236  O 2   d 4      0.00032  -0.00092  -0.00001  -0.00004  -0.00005   0.00000
 237  O 2   d 5     -0.00012   0.00220   0.00000   0.00003  -0.00003   0.00000
 238  O 2   d 1     -0.00002   0.00025   0.00009  -0.00003  -0.00007  -0.00001
 239  O 2   d 2      0.00004   0.00081   0.00002  -0.00006   0.00002   0.00001
 240  O 2   d 3      0.00001  -0.00000   0.00008   0.00002  -0.00000  -0.00001
 241  O 2   d 4      0.00004  -0.00018  -0.00005  -0.00005  -0.00005   0.00000
 242  O 2   d 5      0.00008  -0.00029  -0.00003   0.00014  -0.00001   0.00002
 243  O 2   f 1      0.00000   0.00011  -0.00000   0.00000   0.00000   0.00000
 244  O 2   f 2      0.00001  -0.00004  -0.00000  -0.00000  -0.00000  -0.00000
 245  O 2   f 3      0.00000   0.00001  -0.00000   0.00000   0.00000   0.00000
 246  O 2   f 4      0.00001   0.00006  -0.00000   0.00000  -0.00000   0.00000
 247  O 2   f 5     -0.00001   0.00010   0.00000   0.00000   0.00000   0.00000
 248  O 2   f 6     -0.00001  -0.00005   0.00000   0.00000  -0.00000   0.00000
 249  O 2   f 7      0.00000  -0.00004  -0.00000  -0.00000   0.00000   0.00000
 250  O 2   f 1      0.00001  -0.00094   0.00000  -0.00001  -0.00000  -0.00000
 251  O 2   f 2     -0.00007   0.00031   0.00000   0.00001   0.00001   0.00000
 252  O 2   f 3     -0.00002  -0.00012   0.00000  -0.00001  -0.00000  -0.00000
 253  O 2   f 4     -0.00006  -0.00047   0.00000  -0.00000   0.00000  -0.00000
 254  O 2   f 5      0.00004  -0.00085  -0.00000  -0.00001  -0.00000  -0.00000
 255  O 2   f 6      0.00004   0.00040  -0.00000  -0.00001  -0.00000   0.00000
 256  O 2   f 7     -0.00002   0.00031   0.00000   0.00000  -0.00001  -0.00000
 257  O 2   f 1      0.00003   0.00032   0.00003  -0.00001  -0.00002   0.00000
 258  O 2   f 2     -0.00002  -0.00001   0.00001   0.00002  -0.00000  -0.00000
 259  O 2   f 3      0.00001   0.00013  -0.00001   0.00001   0.00002   0.00001
 260  O 2   f 4     -0.00003   0.00023   0.00002   0.00000   0.00000  -0.00000
 261  O 2   f 5      0.00004   0.00015   0.00000  -0.00003  -0.00000  -0.00000
 262  O 2   f 6      0.00008  -0.00012  -0.00001   0.00002  -0.00001   0.00000
 263  O 2   f 7     -0.00005  -0.00009   0.00001   0.00002  -0.00002   0.00000
 264  O 2   g 1     -0.00000  -0.00008  -0.00000   0.00000   0.00000  -0.00000
 265  O 2   g 2     -0.00000  -0.00010  -0.00000  -0.00000   0.00000  -0.00000
 266  O 2   g 3     -0.00000   0.00011   0.00000   0.00000   0.00000  -0.00000
 267  O 2   g 4      0.00000   0.00001   0.00000  -0.00000  -0.00000  -0.00000
 268  O 2   g 5     -0.00000  -0.00002  -0.00000   0.00000  -0.00000  -0.00000
 269  O 2   g 6     -0.00000  -0.00005  -0.00000   0.00000  -0.00000   0.00000
 270  O 2   g 7      0.00000  -0.00002  -0.00000   0.00000  -0.00000   0.00000
 271  O 2   g 8     -0.00000   0.00003  -0.00000   0.00000   0.00000   0.00000
 272  O 2   g 9     -0.00000  -0.00003  -0.00000   0.00000   0.00000  -0.00000
 273  O 2   g 1      0.00002  -0.00002   0.00001  -0.00000  -0.00000   0.00000
 274  O 2   g 2     -0.00003  -0.00004   0.00001   0.00000  -0.00000  -0.00000
 275  O 2   g 3     -0.00000   0.00007  -0.00000   0.00000   0.00000   0.00000
 276  O 2   g 4      0.00001   0.00001  -0.00000   0.00000   0.00000   0.00000
 277  O 2   g 5     -0.00002   0.00002   0.00000  -0.00000   0.00000   0.00000
 278  O 2   g 6     -0.00003  -0.00004   0.00000   0.00000   0.00001  -0.00000
 279  O 2   g 7      0.00002   0.00001  -0.00000  -0.00000   0.00000  -0.00000
 280  O 2   g 8      0.00002   0.00002  -0.00000   0.00000  -0.00000  -0.00000
 281  O 2   g 9     -0.00001  -0.00000   0.00000  -0.00000  -0.00001   0.00000
 282  O 2   h 1      0.00000  -0.00004   0.00000  -0.00000  -0.00000   0.00000
 283  O 2   h 2     -0.00001  -0.00001   0.00000  -0.00000   0.00000   0.00000
 284  O 2   h 3     -0.00000  -0.00002   0.00000   0.00000   0.00000   0.00000
 285  O 2   h 4      0.00001   0.00005  -0.00000  -0.00000  -0.00000  -0.00000
 286  O 2   h 5      0.00000   0.00000  -0.00000  -0.00000   0.00000  -0.00000
 287  O 2   h 6      0.00000   0.00000  -0.00000   0.00000   0.00000   0.00000
 288  O 2   h 7     -0.00000   0.00004   0.00000   0.00000   0.00000   0.00000
 289  O 2   h 8     -0.00000  -0.00001   0.00000  -0.00000   0.00000   0.00000
 290  O 2   h 9      0.00000   0.00002  -0.00000   0.00000  -0.00000  -0.00000
 291  O 2   h10     -0.00000  -0.00003   0.00000  -0.00000  -0.00000   0.00000
 292  O 2   h11     -0.00000  -0.00002   0.00000   0.00000  -0.00000   0.00000
 293  H 3   s       -0.00002   0.00023  -0.00000   0.00000   0.00000   0.00000
 294  H 3   s        0.00004   0.00167   0.00004   0.00001  -0.00003   0.00000
 295  H 3   s       -0.00020  -0.01202   0.00019  -0.00040   0.00011  -0.00004
 296  H 3   s       -0.00026  -0.00340   0.00010  -0.00038   0.00038  -0.00009
 297  H 3   s       -0.00044   0.00091   0.00018  -0.00004   0.00002  -0.00005
 298  H 3   px      -0.00002  -0.00023  -0.00000  -0.00000  -0.00000  -0.00000
 299  H 3   py       0.00001   0.00010  -0.00000   0.00000   0.00000   0.00000
 300  H 3   pz      -0.00000  -0.00003  -0.00000   0.00000  -0.00000  -0.00000
 301  H 3   px       0.00009   0.00031  -0.00001   0.00000   0.00001   0.00000
 302  H 3   py      -0.00003  -0.00008   0.00001  -0.00000  -0.00001  -0.00000
 303  H 3   pz       0.00004  -0.00002   0.00000  -0.00001   0.00000   0.00000
 304  H 3   px      -0.00009   0.00842  -0.00008   0.00012  -0.00009   0.00001
 305  H 3   py       0.00008  -0.00420  -0.00001  -0.00008   0.00010  -0.00001
 306  H 3   pz      -0.00038   0.00217  -0.00001   0.00007   0.00001   0.00000
 307  H 3   px       0.00055   0.00250   0.00001   0.00015  -0.00011   0.00003
 308  H 3   py      -0.00042  -0.00152  -0.00007  -0.00014   0.00011  -0.00004
 309  H 3   pz       0.00038   0.00068   0.00003   0.00005   0.00009   0.00000
 310  H 3   d 1      0.00002  -0.00012   0.00000  -0.00000   0.00000  -0.00000
 311  H 3   d 2      0.00002  -0.00001  -0.00000   0.00000  -0.00000  -0.00000
 312  H 3   d 3      0.00000  -0.00009   0.00000   0.00000   0.00000   0.00000
 313  H 3   d 4     -0.00003   0.00004   0.00001   0.00000   0.00000   0.00000
 314  H 3   d 5     -0.00001   0.00010   0.00000   0.00000  -0.00000   0.00000
 315  H 3   d 1     -0.00008   0.00187  -0.00001   0.00001  -0.00002   0.00000
 316  H 3   d 2     -0.00011   0.00035   0.00000   0.00000   0.00000   0.00000
 317  H 3   d 3      0.00002   0.00134  -0.00001   0.00000  -0.00001  -0.00000
 318  H 3   d 4      0.00019  -0.00077  -0.00002  -0.00001  -0.00001  -0.00000
 319  H 3   d 5      0.00001  -0.00155   0.00001  -0.00001   0.00000  -0.00000
 320  H 3   d 1      0.00014   0.00277   0.00006   0.00006  -0.00009   0.00001
 321  H 3   d 2     -0.00011   0.00075   0.00000   0.00002  -0.00001   0.00000
 322  H 3   d 3      0.00015   0.00170   0.00003   0.00002  -0.00005   0.00001
 323  H 3   d 4      0.00004  -0.00168   0.00001  -0.00005  -0.00002  -0.00000
 324  H 3   d 5     -0.00012  -0.00188   0.00000   0.00002   0.00000   0.00000
 325  H 3   f 1     -0.00001  -0.00025   0.00000  -0.00000   0.00000  -0.00000
 326  H 3   f 2     -0.00001  -0.00010  -0.00000  -0.00000   0.00000  -0.00000
 327  H 3   f 3     -0.00000   0.00006  -0.00000  -0.00000  -0.00000  -0.00000
 328  H 3   f 4     -0.00000  -0.00010   0.00000   0.00000   0.00000   0.00000
 329  H 3   f 5     -0.00000  -0.00013   0.00000  -0.00000  -0.00000   0.00000
 330  H 3   f 6      0.00000   0.00008   0.00000   0.00000  -0.00000   0.00000
 331  H 3   f 7      0.00001   0.00005  -0.00000   0.00000   0.00000   0.00000
 332  H 3   f 1      0.00004  -0.00120  -0.00001  -0.00001   0.00001   0.00000
 333  H 3   f 2      0.00018  -0.00042  -0.00000  -0.00001  -0.00000   0.00000
 334  H 3   f 3      0.00004   0.00041   0.00001   0.00000  -0.00001   0.00000
 335  H 3   f 4      0.00012  -0.00045  -0.00001  -0.00001  -0.00000  -0.00000
 336  H 3   f 5     -0.00009  -0.00083   0.00000   0.00000   0.00002  -0.00000
 337  H 3   f 6     -0.00008   0.00037  -0.00000   0.00001   0.00001  -0.00000
 338  H 3   f 7      0.00002   0.00026  -0.00001  -0.00001   0.00001  -0.00000
 339  H 3   g 1      0.00000   0.00014  -0.00000  -0.00000  -0.00000  -0.00000
 340  H 3   g 2     -0.00002   0.00007   0.00000   0.00000   0.00000  -0.00000
 341  H 3   g 3     -0.00001  -0.00006  -0.00000   0.00000   0.00000  -0.00000
 342  H 3   g 4      0.00001  -0.00003  -0.00000  -0.00000  -0.00000  -0.00000
 343  H 3   g 5     -0.00001  -0.00005  -0.00000   0.00000   0.00000  -0.00000
 344  H 3   g 6     -0.00002   0.00008   0.00000   0.00000   0.00000   0.00000
 345  H 3   g 7      0.00001   0.00006  -0.00000  -0.00000  -0.00000   0.00000
 346  H 3   g 8     -0.00000  -0.00002  -0.00000  -0.00000  -0.00000   0.00000
 347  H 3   g 9     -0.00001   0.00004   0.00000   0.00000  -0.00000   0.00000
 348  H 4   s        0.00000   0.00021  -0.00000   0.00000   0.00000   0.00000
 349  H 4   s       -0.00008   0.00131   0.00002   0.00003   0.00001   0.00000
 350  H 4   s        0.00042  -0.00903  -0.00006  -0.00043  -0.00006   0.00001
 351  H 4   s       -0.00020  -0.00309  -0.00036  -0.00057  -0.00012   0.00009
 352  H 4   s        0.00008  -0.00034  -0.00004   0.00002  -0.00001   0.00001
 353  H 4   px       0.00001   0.00012   0.00000  -0.00000   0.00000   0.00000
 354  H 4   py      -0.00000   0.00010  -0.00000  -0.00000  -0.00000  -0.00000
 355  H 4   pz      -0.00000  -0.00014   0.00000  -0.00000  -0.00000   0.00000
 356  H 4   px      -0.00004  -0.00013   0.00000   0.00001  -0.00000  -0.00000
 357  H 4   py      -0.00000  -0.00006   0.00001   0.00001   0.00000   0.00000
 358  H 4   pz       0.00002   0.00011  -0.00001   0.00000   0.00000  -0.00000
 359  H 4   px       0.00018  -0.00417  -0.00002  -0.00014  -0.00001   0.00000
 360  H 4   py       0.00001  -0.00358  -0.00003  -0.00011  -0.00004  -0.00001
 361  H 4   pz      -0.00011   0.00510   0.00001   0.00014   0.00005   0.00000
 362  H 4   px      -0.00027  -0.00161  -0.00012  -0.00017  -0.00006   0.00003
 363  H 4   py       0.00011  -0.00155  -0.00010  -0.00010  -0.00004   0.00002
 364  H 4   pz      -0.00008   0.00178   0.00007   0.00017   0.00003  -0.00002
 365  H 4   d 1      0.00001   0.00008  -0.00000   0.00000   0.00000   0.00000
 366  H 4   d 2      0.00001  -0.00010   0.00000  -0.00000  -0.00000  -0.00000
 367  H 4   d 3      0.00001   0.00005   0.00000   0.00000   0.00000   0.00000
 368  H 4   d 4     -0.00000  -0.00011  -0.00000  -0.00000  -0.00000  -0.00000
 369  H 4   d 5     -0.00001   0.00001  -0.00000  -0.00000  -0.00000   0.00000
 370  H 4   d 1     -0.00002  -0.00114  -0.00000  -0.00001  -0.00000  -0.00000
 371  H 4   d 2     -0.00004   0.00138  -0.00000   0.00001   0.00001   0.00000
 372  H 4   d 3     -0.00001  -0.00052  -0.00000  -0.00001  -0.00001  -0.00000
 373  H 4   d 4      0.00000   0.00163   0.00000   0.00003   0.00001   0.00000
 374  H 4   d 5      0.00005  -0.00020   0.00000   0.00000   0.00001   0.00000
 375  H 4   d 1      0.00007  -0.00144  -0.00004  -0.00004  -0.00001   0.00000
 376  H 4   d 2     -0.00000   0.00160   0.00002   0.00004   0.00003   0.00000
 377  H 4   d 3      0.00009  -0.00045   0.00002  -0.00000   0.00000  -0.00000
 378  H 4   d 4     -0.00006   0.00201   0.00002   0.00006   0.00001  -0.00000
 379  H 4   d 5     -0.00011  -0.00021  -0.00001  -0.00004  -0.00000   0.00001
 380  H 4   f 1     -0.00001  -0.00009  -0.00000  -0.00000  -0.00000  -0.00000
 381  H 4   f 2     -0.00000   0.00020  -0.00000   0.00000   0.00000   0.00000
 382  H 4   f 3      0.00000  -0.00012  -0.00000  -0.00000  -0.00000  -0.00000
 383  H 4   f 4     -0.00000  -0.00007   0.00000   0.00000   0.00000   0.00000
 384  H 4   f 5     -0.00000  -0.00015   0.00000  -0.00000  -0.00000   0.00000
 385  H 4   f 6      0.00000   0.00003  -0.00000   0.00000   0.00000  -0.00000
 386  H 4   f 7      0.00001   0.00005  -0.00000   0.00000   0.00000  -0.00000
 387  H 4   f 1      0.00001  -0.00038  -0.00000  -0.00001   0.00000   0.00000
 388  H 4   f 2     -0.00001   0.00100   0.00001   0.00001   0.00001   0.00000
 389  H 4   f 3      0.00001  -0.00052   0.00000  -0.00001  -0.00001  -0.00000
 390  H 4   f 4      0.00000  -0.00037  -0.00001  -0.00000   0.00000  -0.00000
 391  H 4   f 5      0.00003  -0.00062   0.00000  -0.00001  -0.00000  -0.00000
 392  H 4   f 6      0.00001   0.00020   0.00000   0.00001  -0.00000  -0.00000
 393  H 4   f 7     -0.00003   0.00022   0.00000  -0.00000   0.00000   0.00000
 394  H 4   g 1     -0.00000  -0.00001  -0.00000  -0.00000   0.00000   0.00000
 395  H 4   g 2      0.00000   0.00010   0.00000   0.00000   0.00000  -0.00000
 396  H 4   g 3      0.00000  -0.00013  -0.00000  -0.00000  -0.00000  -0.00000
 397  H 4   g 4      0.00000   0.00001  -0.00000   0.00000   0.00000   0.00000
 398  H 4   g 5     -0.00000   0.00009   0.00000   0.00000   0.00000   0.00000
 399  H 4   g 6     -0.00000   0.00001  -0.00000   0.00000   0.00000   0.00000
 400  H 4   g 7      0.00000  -0.00002   0.00000  -0.00000   0.00000  -0.00000
 401  H 4   g 8      0.00000  -0.00005  -0.00000   0.00000  -0.00000  -0.00000
 402  H 4   g 9     -0.00000   0.00004   0.00000   0.00000  -0.00000   0.00000
 403  O 3   s        0.97836  -0.00004   0.00000   0.00000   0.00000  -0.00000
 404  O 3   s        0.03073  -0.00004  -0.00001   0.00001   0.00000  -0.00000
 405  O 3   s        0.08472  -0.00006  -0.00000   0.00001   0.00001  -0.00001
 406  O 3   s       -0.01496   0.00035  -0.00018  -0.00006  -0.00003   0.00002
 407  O 3   s       -0.00948  -0.00089   0.00080   0.00017   0.00001   0.00016
 408  O 3   s       -0.00541   0.00039   0.00111  -0.00015   0.00016   0.00001
 409  O 3   px       0.00042   0.00000   0.00000   0.00000   0.00000  -0.00000
 410  O 3   py      -0.00085   0.00000  -0.00000   0.00000  -0.00000   0.00000
 411  O 3   pz       0.00066   0.00000   0.00000   0.00000  -0.00000   0.00000
 412  O 3   px       0.00020  -0.00001  -0.00000  -0.00000  -0.00001   0.00001
 413  O 3   py      -0.00053  -0.00000   0.00001   0.00000   0.00000   0.00000
 414  O 3   pz       0.00038  -0.00002  -0.00004  -0.00000   0.00000  -0.00001
 415  O 3   px      -0.00237   0.00015   0.00005  -0.00000   0.00004  -0.00007
 416  O 3   py       0.00603  -0.00007  -0.00004  -0.00001  -0.00000  -0.00002
 417  O 3   pz      -0.00502   0.00010   0.00011   0.00002  -0.00005   0.00009
 418  O 3   px      -0.00069  -0.00139  -0.00046   0.00006   0.00019  -0.00017
 419  O 3   py      -0.00010   0.00075  -0.00066  -0.00009  -0.00019   0.00002
 420  O 3   pz      -0.00006   0.00015   0.00087   0.00002  -0.00009   0.00012
 421  O 3   px      -0.00093   0.00007   0.00005  -0.00004   0.00015  -0.00011
 422  O 3   py       0.00024  -0.00021  -0.00005   0.00009  -0.00004  -0.00002
 423  O 3   pz      -0.00033   0.00064   0.00032  -0.00008   0.00001   0.00005
 424  O 3   d 1     -0.00013   0.00001  -0.00000  -0.00000  -0.00000   0.00000
 425  O 3   d 2     -0.00012   0.00000  -0.00000  -0.00000  -0.00000   0.00000
 426  O 3   d 3      0.00002   0.00001   0.00000  -0.00000  -0.00000  -0.00000
 427  O 3   d 4     -0.00017   0.00000  -0.00000  -0.00000  -0.00000   0.00000
 428  O 3   d 5      0.00007  -0.00001  -0.00000  -0.00000   0.00000   0.00000
 429  O 3   d 1      0.00019  -0.00004  -0.00000   0.00000   0.00000  -0.00000
 430  O 3   d 2      0.00021  -0.00000   0.00001   0.00000   0.00000  -0.00000
 431  O 3   d 3     -0.00004  -0.00004  -0.00001  -0.00000   0.00000  -0.00000
 432  O 3   d 4      0.00029  -0.00001   0.00001   0.00000   0.00000  -0.00000
 433  O 3   d 5     -0.00011   0.00003   0.00001   0.00000  -0.00000   0.00000
 434  O 3   d 1      0.00117   0.00015   0.00003   0.00000  -0.00003   0.00003
 435  O 3   d 2      0.00108   0.00001  -0.00008  -0.00002   0.00000  -0.00001
 436  O 3   d 3     -0.00046   0.00018   0.00004   0.00000  -0.00003   0.00005
 437  O 3   d 4      0.00174   0.00002  -0.00008  -0.00001   0.00001  -0.00002
 438  O 3   d 5     -0.00074  -0.00014  -0.00004  -0.00000  -0.00000  -0.00002
 439  O 3   d 1     -0.00045   0.00028  -0.00008  -0.00004  -0.00006   0.00001
 440  O 3   d 2     -0.00060  -0.00048  -0.00032  -0.00001  -0.00000   0.00001
 441  O 3   d 3      0.00049   0.00067   0.00038  -0.00002  -0.00004   0.00006
 442  O 3   d 4     -0.00089   0.00050  -0.00015  -0.00000  -0.00001  -0.00001
 443  O 3   d 5     -0.00004  -0.00041  -0.00015   0.00002  -0.00004  -0.00006
 444  O 3   f 1     -0.00009   0.00000  -0.00000   0.00000  -0.00000  -0.00000
 445  O 3   f 2      0.00007   0.00000  -0.00000  -0.00000  -0.00000  -0.00000
 446  O 3   f 3     -0.00003   0.00000   0.00000   0.00000  -0.00000   0.00000
 447  O 3   f 4      0.00005   0.00000   0.00000   0.00000  -0.00000  -0.00000
 448  O 3   f 5     -0.00011  -0.00000   0.00000   0.00000  -0.00000   0.00000
 449  O 3   f 6     -0.00001  -0.00000   0.00000   0.00000   0.00000  -0.00000
 450  O 3   f 7      0.00000  -0.00000   0.00000   0.00000   0.00000   0.00000
 451  O 3   f 1      0.00066  -0.00002   0.00001  -0.00000  -0.00000   0.00001
 452  O 3   f 2     -0.00056  -0.00001   0.00003   0.00000   0.00000   0.00000
 453  O 3   f 3      0.00026  -0.00000  -0.00001  -0.00000   0.00000  -0.00001
 454  O 3   f 4     -0.00038  -0.00000  -0.00001  -0.00000  -0.00000   0.00000
 455  O 3   f 5      0.00086   0.00001  -0.00002  -0.00000   0.00000  -0.00000
 456  O 3   f 6      0.00009   0.00000  -0.00000  -0.00000  -0.00000   0.00000
 457  O 3   f 7      0.00001  -0.00000  -0.00001  -0.00000  -0.00000  -0.00000
 458  O 3   f 1     -0.00037   0.00032  -0.00003  -0.00001  -0.00001   0.00001
 459  O 3   f 2      0.00036   0.00008   0.00001   0.00001   0.00000  -0.00000
 460  O 3   f 3     -0.00014  -0.00016  -0.00006  -0.00000  -0.00000   0.00000
 461  O 3   f 4      0.00025   0.00019   0.00006   0.00000  -0.00000   0.00001
 462  O 3   f 5     -0.00049   0.00014  -0.00001  -0.00001  -0.00000   0.00001
 463  O 3   f 6     -0.00009  -0.00022  -0.00000  -0.00001  -0.00001   0.00000
 464  O 3   f 7     -0.00000   0.00006  -0.00001   0.00000  -0.00001  -0.00002
 465  O 3   g 1      0.00006   0.00000  -0.00000   0.00000  -0.00000  -0.00000
 466  O 3   g 2     -0.00001  -0.00000   0.00000  -0.00000  -0.00000  -0.00000
 467  O 3   g 3     -0.00012   0.00000  -0.00000  -0.00000  -0.00000   0.00000
 468  O 3   g 4      0.00008   0.00000  -0.00000  -0.00000   0.00000  -0.00000
 469  O 3   g 5     -0.00002  -0.00000   0.00000  -0.00000  -0.00000  -0.00000
 470  O 3   g 6      0.00003   0.00001  -0.00000  -0.00000   0.00000  -0.00000
 471  O 3   g 7      0.00002   0.00000  -0.00000   0.00000   0.00000  -0.00000
 472  O 3   g 8     -0.00002  -0.00000  -0.00000   0.00000  -0.00000   0.00000
 473  O 3   g 9      0.00007  -0.00000  -0.00000   0.00000   0.00000   0.00000
 474  O 3   g 1      0.00000   0.00000   0.00002  -0.00000   0.00000   0.00001
 475  O 3   g 2     -0.00000   0.00003  -0.00000   0.00000   0.00000   0.00000
 476  O 3   g 3     -0.00001  -0.00003   0.00002   0.00000   0.00000  -0.00000
 477  O 3   g 4      0.00001  -0.00003  -0.00001  -0.00000  -0.00000   0.00000
 478  O 3   g 5     -0.00001   0.00001  -0.00001  -0.00000   0.00000  -0.00000
 479  O 3   g 6      0.00000  -0.00001  -0.00000  -0.00000   0.00000  -0.00000
 480  O 3   g 7     -0.00001  -0.00003   0.00000  -0.00000  -0.00000   0.00000
 481  O 3   g 8      0.00000   0.00002   0.00001   0.00000   0.00000   0.00000
 482  O 3   g 9     -0.00002   0.00002  -0.00001  -0.00000  -0.00000  -0.00000
 483  O 3   h 1      0.00001   0.00000   0.00001   0.00000   0.00000   0.00000
 484  O 3   h 2     -0.00001  -0.00000   0.00000  -0.00000  -0.00000   0.00000
 485  O 3   h 3     -0.00000   0.00000  -0.00000   0.00000   0.00000  -0.00000
 486  O 3   h 4     -0.00003  -0.00000   0.00000   0.00000  -0.00000  -0.00000
 487  O 3   h 5      0.00004  -0.00000  -0.00000  -0.00000  -0.00000   0.00000
 488  O 3   h 6      0.00004  -0.00000  -0.00000  -0.00000  -0.00000   0.00000
 489  O 3   h 7      0.00000  -0.00001  -0.00000   0.00000   0.00000  -0.00000
 490  O 3   h 8     -0.00001  -0.00000  -0.00000  -0.00000  -0.00000   0.00000
 491  O 3   h 9     -0.00002   0.00001   0.00000   0.00000   0.00000  -0.00000
 492  O 3   h10     -0.00000   0.00000   0.00000  -0.00000   0.00000   0.00000
 493  O 3   h11      0.00004   0.00000  -0.00000  -0.00000  -0.00000   0.00000
 494  H 5   s       -0.00011  -0.00001   0.00000   0.00000   0.00000  -0.00000
 495  H 5   s       -0.00167   0.00002   0.00002  -0.00000   0.00001  -0.00001
 496  H 5   s        0.00681   0.00187  -0.00007  -0.00011  -0.00021   0.00018
 497  H 5   s        0.00345   0.00028  -0.00009   0.00005  -0.00033   0.00016
 498  H 5   s        0.00009  -0.00002   0.00003   0.00002   0.00003   0.00004
 499  H 5   px       0.00014   0.00001   0.00000   0.00000   0.00000   0.00000
 500  H 5   py      -0.00008   0.00001   0.00001   0.00000   0.00000  -0.00000
 501  H 5   pz      -0.00002   0.00000  -0.00000  -0.00000   0.00000   0.00000
 502  H 5   px       0.00012  -0.00003  -0.00003  -0.00000  -0.00000  -0.00000
 503  H 5   py      -0.00017  -0.00002  -0.00003  -0.00000  -0.00000  -0.00000
 504  H 5   pz      -0.00000  -0.00001   0.00001   0.00000  -0.00000  -0.00000
 505  H 5   px      -0.00480  -0.00048   0.00016   0.00004   0.00010  -0.00005
 506  H 5   py       0.00349   0.00042   0.00011  -0.00002  -0.00002   0.00008
 507  H 5   pz       0.00076   0.00026  -0.00003  -0.00002  -0.00000   0.00003
 508  H 5   px      -0.00195  -0.00017   0.00010  -0.00001   0.00013  -0.00005
 509  H 5   py       0.00173   0.00022   0.00011  -0.00002  -0.00006   0.00008
 510  H 5   pz       0.00035  -0.00010  -0.00010   0.00001  -0.00004   0.00004
 511  H 5   d 1      0.00020   0.00000  -0.00000   0.00000  -0.00000   0.00000
 512  H 5   d 2     -0.00002  -0.00001  -0.00000   0.00000  -0.00000  -0.00000
 513  H 5   d 3      0.00013  -0.00001  -0.00000   0.00000   0.00000   0.00000
 514  H 5   d 4      0.00003   0.00001  -0.00000   0.00000   0.00000   0.00000
 515  H 5   d 5     -0.00008  -0.00000   0.00001   0.00000   0.00000   0.00000
 516  H 5   d 1     -0.00170  -0.00006   0.00000   0.00000   0.00001  -0.00002
 517  H 5   d 2      0.00022   0.00006   0.00001  -0.00000   0.00000   0.00001
 518  H 5   d 3     -0.00103   0.00001   0.00001   0.00000   0.00000  -0.00001
 519  H 5   d 4     -0.00036  -0.00006  -0.00000   0.00000   0.00000  -0.00000
 520  H 5   d 5      0.00067   0.00003  -0.00003  -0.00001  -0.00001  -0.00000
 521  H 5   d 1     -0.00211   0.00002   0.00003   0.00000   0.00001  -0.00003
 522  H 5   d 2      0.00046   0.00008   0.00001   0.00000  -0.00000   0.00001
 523  H 5   d 3     -0.00129  -0.00002  -0.00004   0.00000   0.00002  -0.00000
 524  H 5   d 4     -0.00043  -0.00005   0.00006   0.00000   0.00001  -0.00002
 525  H 5   d 5      0.00064  -0.00008  -0.00014   0.00001  -0.00003  -0.00002
 526  H 5   f 1      0.00020   0.00001   0.00000  -0.00000  -0.00000   0.00000
 527  H 5   f 2     -0.00005   0.00001  -0.00000   0.00000   0.00000  -0.00000
 528  H 5   f 3     -0.00008  -0.00000   0.00000  -0.00000   0.00000  -0.00000
 529  H 5   f 4     -0.00004  -0.00000  -0.00000   0.00000   0.00000  -0.00000
 530  H 5   f 5      0.00013   0.00000  -0.00000  -0.00000  -0.00000   0.00000
 531  H 5   f 6      0.00002   0.00001   0.00000  -0.00000  -0.00000   0.00000
 532  H 5   f 7      0.00005   0.00000   0.00001   0.00000  -0.00000   0.00000
 533  H 5   f 1      0.00102  -0.00004  -0.00003   0.00000  -0.00000   0.00000
 534  H 5   f 2     -0.00030  -0.00006   0.00000  -0.00000   0.00000  -0.00001
 535  H 5   f 3     -0.00044   0.00002  -0.00001   0.00000   0.00000  -0.00000
 536  H 5   f 4     -0.00026  -0.00002  -0.00000  -0.00000   0.00000  -0.00000
 537  H 5   f 5      0.00065  -0.00002  -0.00000  -0.00000  -0.00000  -0.00000
 538  H 5   f 6      0.00011  -0.00002  -0.00001   0.00000  -0.00000   0.00000
 539  H 5   f 7      0.00028  -0.00000   0.00001  -0.00000   0.00001   0.00001
 540  H 5   g 1     -0.00011   0.00001   0.00000  -0.00000   0.00000   0.00000
 541  H 5   g 2      0.00005   0.00000  -0.00000   0.00000   0.00000   0.00000
 542  H 5   g 3      0.00011  -0.00000   0.00000   0.00000  -0.00000   0.00000
 543  H 5   g 4     -0.00003   0.00000  -0.00000  -0.00000   0.00000  -0.00000
 544  H 5   g 5      0.00008  -0.00000  -0.00000  -0.00000  -0.00000   0.00000
 545  H 5   g 6      0.00005  -0.00000  -0.00000  -0.00000  -0.00000   0.00000
 546  H 5   g 7     -0.00005   0.00000   0.00000  -0.00000   0.00000   0.00000
 547  H 5   g 8      0.00001   0.00000   0.00000   0.00000   0.00000   0.00000
 548  H 5   g 9     -0.00013   0.00000  -0.00000  -0.00000  -0.00000  -0.00000
 549  H 6   s       -0.00016   0.00001   0.00001   0.00000   0.00000  -0.00000
 550  H 6   s       -0.00160  -0.00008   0.00004  -0.00000  -0.00002   0.00004
 551  H 6   s        0.00704  -0.00025  -0.00134  -0.00009   0.00008  -0.00020
 552  H 6   s        0.00292  -0.00112  -0.00070   0.00015   0.00019  -0.00031
 553  H 6   s        0.00005  -0.00004   0.00001   0.00000   0.00001  -0.00004
 554  H 6   px      -0.00008  -0.00000  -0.00000  -0.00000   0.00000  -0.00000
 555  H 6   py      -0.00008   0.00000   0.00000   0.00000   0.00000  -0.00000
 556  H 6   pz       0.00016  -0.00000  -0.00000  -0.00000  -0.00000   0.00000
 557  H 6   px       0.00005   0.00003   0.00001   0.00000  -0.00000   0.00001
 558  H 6   py      -0.00002  -0.00002  -0.00001  -0.00001  -0.00001   0.00001
 559  H 6   pz       0.00001   0.00004   0.00002   0.00000   0.00001  -0.00001
 560  H 6   px       0.00231  -0.00045  -0.00026  -0.00003   0.00001  -0.00006
 561  H 6   py       0.00264   0.00012  -0.00017   0.00000   0.00005  -0.00007
 562  H 6   pz      -0.00566  -0.00011   0.00038   0.00005  -0.00005   0.00011
 563  H 6   px       0.00122  -0.00039  -0.00014   0.00003   0.00002  -0.00007
 564  H 6   py       0.00119  -0.00017  -0.00012   0.00001   0.00009  -0.00009
 565  H 6   pz      -0.00221   0.00026   0.00021  -0.00003  -0.00009   0.00015
 566  H 6   d 1     -0.00004   0.00000   0.00000   0.00000  -0.00000   0.00000
 567  H 6   d 2      0.00013   0.00002  -0.00000   0.00000   0.00000  -0.00000
 568  H 6   d 3     -0.00013  -0.00001  -0.00000   0.00000  -0.00000   0.00000
 569  H 6   d 4      0.00011  -0.00001  -0.00000  -0.00000   0.00000  -0.00000
 570  H 6   d 5      0.00001  -0.00000   0.00000   0.00000   0.00000   0.00000
 571  H 6   d 1      0.00054  -0.00002  -0.00003  -0.00000   0.00000  -0.00001
 572  H 6   d 2     -0.00139  -0.00007   0.00004   0.00000  -0.00001   0.00001
 573  H 6   d 3      0.00137   0.00006  -0.00004  -0.00001   0.00001  -0.00001
 574  H 6   d 4     -0.00123   0.00009   0.00004   0.00001  -0.00000   0.00001
 575  H 6   d 5     -0.00007  -0.00002  -0.00001  -0.00000  -0.00000   0.00000
 576  H 6   d 1      0.00084  -0.00015   0.00000   0.00001   0.00002  -0.00003
 577  H 6   d 2     -0.00174  -0.00003  -0.00000   0.00000  -0.00005   0.00006
 578  H 6   d 3      0.00164   0.00005  -0.00000  -0.00000   0.00001  -0.00003
 579  H 6   d 4     -0.00160   0.00018   0.00002   0.00001  -0.00001   0.00005
 580  H 6   d 5     -0.00002  -0.00010  -0.00002  -0.00000  -0.00001   0.00001
 581  H 6   f 1      0.00002   0.00000  -0.00000  -0.00000   0.00000  -0.00000
 582  H 6   f 2     -0.00013   0.00001   0.00000   0.00000   0.00000   0.00000
 583  H 6   f 3      0.00017   0.00001  -0.00001  -0.00000   0.00000  -0.00000
 584  H 6   f 4     -0.00007  -0.00001   0.00000   0.00000  -0.00000   0.00000
 585  H 6   f 5      0.00016  -0.00001  -0.00001  -0.00000   0.00000  -0.00000
 586  H 6   f 6      0.00003   0.00001   0.00000   0.00000   0.00000  -0.00000
 587  H 6   f 7     -0.00003  -0.00000   0.00000   0.00000   0.00000   0.00000
 588  H 6   f 1      0.00012  -0.00003  -0.00000   0.00000   0.00000  -0.00000
 589  H 6   f 2     -0.00068   0.00003  -0.00001  -0.00000  -0.00001   0.00001
 590  H 6   f 3      0.00095   0.00002   0.00001  -0.00000   0.00001  -0.00001
 591  H 6   f 4     -0.00031  -0.00002   0.00001   0.00000   0.00000  -0.00000
 592  H 6   f 5      0.00084  -0.00004   0.00000  -0.00000   0.00000  -0.00001
 593  H 6   f 6      0.00005   0.00003   0.00000   0.00000   0.00000  -0.00000
 594  H 6   f 7     -0.00013   0.00003  -0.00002  -0.00000  -0.00000   0.00000
 595  H 6   g 1      0.00000   0.00000  -0.00000  -0.00000  -0.00000   0.00000
 596  H 6   g 2     -0.00003   0.00000  -0.00000   0.00000  -0.00000   0.00000
 597  H 6   g 3      0.00014  -0.00000   0.00000   0.00000   0.00000  -0.00000
 598  H 6   g 4     -0.00012  -0.00000   0.00000   0.00000  -0.00000   0.00000
 599  H 6   g 5     -0.00002   0.00000  -0.00000  -0.00000  -0.00000   0.00000
 600  H 6   g 6     -0.00011   0.00001   0.00000   0.00000   0.00000   0.00000
 601  H 6   g 7     -0.00002  -0.00000  -0.00000  -0.00000  -0.00000   0.00000
 602  H 6   g 8      0.00004  -0.00000   0.00000   0.00000   0.00000  -0.00000
 603  H 6   g 9     -0.00002   0.00000  -0.00000  -0.00000  -0.00000   0.00000
 604  O 4   s       -0.00000   0.00006  -0.00000   0.00003  -0.00003   0.00000
 605  O 4   s       -0.00000   0.00004   0.00000   0.00000  -0.00001   0.00000
 606  O 4   s       -0.00001   0.00005   0.00000  -0.00000  -0.00003   0.00000
 607  O 4   s        0.00002  -0.00011  -0.00003   0.00035  -0.00002   0.00001
 608  O 4   s       -0.00003  -0.00024   0.00015  -0.00189   0.00104  -0.00012
 609  O 4   s       -0.00023  -0.00030  -0.00025  -0.00213   0.00057  -0.00014
 610  O 4   px       0.00000   0.00000  -0.00000   0.00000  -0.00000  -0.00000
 611  O 4   py      -0.00000   0.00000   0.00000   0.00000   0.00000   0.00000
 612  O 4   pz      -0.00000   0.00000   0.00000  -0.00001   0.00000  -0.00000
 613  O 4   px       0.00000  -0.00003   0.00001  -0.00003  -0.00000   0.00000
 614  O 4   py       0.00000  -0.00003  -0.00000  -0.00003  -0.00001  -0.00000
 615  O 4   pz       0.00000  -0.00002  -0.00000   0.00006  -0.00003   0.00001
 616  O 4   px      -0.00001   0.00026  -0.00006   0.00017   0.00008  -0.00001
 617  O 4   py      -0.00000   0.00028  -0.00001   0.00022   0.00003   0.00001
 618  O 4   pz      -0.00001   0.00010  -0.00000  -0.00019   0.00031  -0.00004
 619  O 4   px       0.00003   0.00021  -0.00020   0.00125   0.00031   0.00007
 620  O 4   py       0.00016  -0.00016   0.00005   0.00074   0.00005   0.00008
 621  O 4   pz      -0.00006  -0.00014   0.00008  -0.00108   0.00059  -0.00009
 622  O 4   px       0.00005   0.00001  -0.00003   0.00009   0.00012   0.00003
 623  O 4   py       0.00008   0.00004   0.00004   0.00029   0.00004   0.00004
 624  O 4   pz       0.00003  -0.00005   0.00004   0.00006   0.00010  -0.00000
 625  O 4   d 1     -0.00000   0.00000  -0.00000  -0.00000   0.00000  -0.00000
 626  O 4   d 2      0.00000   0.00000   0.00000   0.00000   0.00000   0.00000
 627  O 4   d 3      0.00000  -0.00000   0.00000  -0.00000   0.00000  -0.00000
 628  O 4   d 4      0.00000  -0.00000  -0.00000   0.00000  -0.00000   0.00000
 629  O 4   d 5      0.00000  -0.00000   0.00000  -0.00000  -0.00000   0.00000
 630  O 4   d 1      0.00000  -0.00001   0.00000   0.00003  -0.00001   0.00000
 631  O 4   d 2     -0.00000  -0.00000  -0.00001  -0.00001  -0.00001  -0.00000
 632  O 4   d 3     -0.00000   0.00001  -0.00001   0.00001  -0.00000   0.00000
 633  O 4   d 4     -0.00000   0.00001   0.00001  -0.00000   0.00000  -0.00000
 634  O 4   d 5     -0.00000  -0.00000  -0.00000   0.00001   0.00001  -0.00000
 635  O 4   d 1     -0.00000  -0.00010   0.00002  -0.00026   0.00004  -0.00001
 636  O 4   d 2      0.00002   0.00004   0.00005   0.00004   0.00004   0.00001
 637  O 4   d 3     -0.00000   0.00009   0.00003   0.00001   0.00012  -0.00002
 638  O 4   d 4      0.00000   0.00003  -0.00004   0.00001   0.00008  -0.00000
 639  O 4   d 5      0.00002   0.00006   0.00001  -0.00005  -0.00001   0.00001
 640  O 4   d 1     -0.00003  -0.00003   0.00001  -0.00062  -0.00010  -0.00003
 641  O 4   d 2      0.00004   0.00006   0.00001   0.00019  -0.00013   0.00003
 642  O 4   d 3      0.00001  -0.00004   0.00010  -0.00003   0.00010  -0.00001
 643  O 4   d 4      0.00005   0.00019   0.00002  -0.00002  -0.00003   0.00002
 644  O 4   d 5      0.00006  -0.00018  -0.00002   0.00007   0.00004   0.00003
 645  O 4   f 1      0.00000   0.00001   0.00000  -0.00000  -0.00000  -0.00000
 646  O 4   f 2     -0.00000  -0.00000  -0.00000   0.00000  -0.00000  -0.00000
 647  O 4   f 3      0.00000   0.00000  -0.00000   0.00000  -0.00000   0.00000
 648  O 4   f 4      0.00000  -0.00000  -0.00000  -0.00000  -0.00000   0.00000
 649  O 4   f 5     -0.00000  -0.00000   0.00000   0.00000  -0.00000   0.00000
 650  O 4   f 6     -0.00000  -0.00000   0.00000   0.00000   0.00000  -0.00000
 651  O 4   f 7      0.00000   0.00000  -0.00000   0.00000   0.00000   0.00000
 652  O 4   f 1     -0.00001  -0.00002  -0.00001   0.00003   0.00001   0.00000
 653  O 4   f 2      0.00000   0.00001   0.00001  -0.00002   0.00001   0.00000
 654  O 4   f 3     -0.00000  -0.00002   0.00001  -0.00002   0.00002  -0.00000
 655  O 4   f 4     -0.00000   0.00002   0.00001   0.00000   0.00001  -0.00000
 656  O 4   f 5      0.00000   0.00000  -0.00000  -0.00002   0.00002  -0.00000
 657  O 4   f 6      0.00000   0.00001  -0.00001  -0.00000   0.00000  -0.00000
 658  O 4   f 7     -0.00000  -0.00002   0.00000  -0.00002   0.00000  -0.00000
 659  O 4   f 1     -0.00001   0.00007  -0.00002   0.00006   0.00000  -0.00001
 660  O 4   f 2     -0.00001  -0.00007  -0.00002  -0.00013  -0.00000  -0.00001
 661  O 4   f 3      0.00000   0.00003   0.00001  -0.00006  -0.00006   0.00000
 662  O 4   f 4      0.00000   0.00001   0.00005   0.00004  -0.00000  -0.00000
 663  O 4   f 5      0.00000   0.00002   0.00001  -0.00011  -0.00004  -0.00000
 664  O 4   f 6      0.00001   0.00006  -0.00000   0.00001  -0.00003   0.00001
 665  O 4   f 7     -0.00002   0.00001  -0.00003  -0.00001  -0.00001  -0.00001
 666  O 4   g 1     -0.00000   0.00000  -0.00000   0.00000  -0.00000  -0.00000
 667  O 4   g 2      0.00000   0.00000   0.00000   0.00001  -0.00000   0.00000
 668  O 4   g 3     -0.00000   0.00000  -0.00000   0.00000   0.00000   0.00000
 669  O 4   g 4      0.00000   0.00000   0.00000  -0.00000   0.00000  -0.00000
 670  O 4   g 5      0.00000  -0.00000  -0.00000  -0.00000   0.00000  -0.00000
 671  O 4   g 6     -0.00000   0.00000  -0.00000   0.00000   0.00000  -0.00000
 672  O 4   g 7     -0.00000  -0.00000   0.00000  -0.00000   0.00000  -0.00000
 673  O 4   g 8      0.00000   0.00000   0.00000   0.00000  -0.00000   0.00000
 674  O 4   g 9     -0.00000  -0.00000   0.00000  -0.00000  -0.00000   0.00000
[...]
1258  O 7   f 4      0.00022   0.00001  -0.00013
1259  O 7   f 5      0.00042   0.00058  -0.00051
1260  O 7   f 6     -0.00000   0.00006  -0.00020
1261  O 7   f 7      0.00007   0.00018  -0.00075
1262  O 7   f 1     -0.00107  -0.00694  -0.00609
1263  O 7   f 2     -0.00186  -0.00141  -0.01133
1264  O 7   f 3     -0.00087  -0.00021   0.00120
1265  O 7   f 4     -0.00085  -0.00375  -0.00340
1266  O 7   f 5      0.00183   0.00558   0.00158
1267  O 7   f 6     -0.00092   0.00185  -0.00291
1268  O 7   f 7      0.00058   0.00072  -0.00726
1269  O 7   g 1      0.00005   0.00005  -0.00018
1270  O 7   g 2      0.00001   0.00006  -0.00009
1271  O 7   g 3      0.00000   0.00002   0.00007
1272  O 7   g 4     -0.00000  -0.00001  -0.00001
1273  O 7   g 5      0.00006   0.00006  -0.00009
1274  O 7   g 6      0.00002  -0.00002   0.00003
1275  O 7   g 7     -0.00001  -0.00001   0.00007
1276  O 7   g 8      0.00001   0.00000   0.00011
1277  O 7   g 9     -0.00002  -0.00000   0.00008
1278  O 7   g 1      0.00013   0.00036   0.00080
1279  O 7   g 2     -0.00000  -0.00083  -0.00027
1280  O 7   g 3     -0.00049  -0.00103  -0.00077
1281  O 7   g 4     -0.00003   0.00021   0.00053
1282  O 7   g 5     -0.00014  -0.00006  -0.00008
1283  O 7   g 6     -0.00006   0.00029  -0.00104
1284  O 7   g 7     -0.00007  -0.00010  -0.00041
1285  O 7   g 8     -0.00011  -0.00013  -0.00172
1286  O 7   g 9     -0.00028  -0.00082  -0.00132
1287  O 7   h 1      0.00000  -0.00001   0.00008
1288  O 7   h 2     -0.00000  -0.00000  -0.00001
1289  O 7   h 3      0.00002   0.00002  -0.00004
1290  O 7   h 4     -0.00001  -0.00004   0.00016
1291  O 7   h 5     -0.00000  -0.00001   0.00009
1292  O 7   h 6     -0.00003   0.00001   0.00000
1293  O 7   h 7     -0.00004  -0.00009  -0.00014
1294  O 7   h 8      0.00001  -0.00002   0.00003
1295  O 7   h 9     -0.00003  -0.00004  -0.00011
1296  O 7   h10     -0.00000  -0.00006  -0.00023
1297  O 7   h11      0.00007   0.00011  -0.00010
1298  H 13  s       -0.00095  -0.00142  -0.00270
1299  H 13  s       -0.00286  -0.00389   0.00042
1300  H 13  s       -0.02076  -0.04972  -0.13318
1301  H 13  s       -0.02262   0.02082   0.02244
1302  H 13  s       -0.01815  -0.05447  -0.58208
1303  H 13  px      -0.00007  -0.00027  -0.00114
1304  H 13  py      -0.00004   0.00012   0.00107
1305  H 13  pz       0.00005  -0.00012  -0.00100
1306  H 13  px      -0.00001   0.00049   0.00109
1307  H 13  py      -0.00047  -0.00099  -0.00231
1308  H 13  pz       0.00018   0.00064   0.00149
1309  H 13  px       0.00204   0.00460   0.01497
1310  H 13  py      -0.00101  -0.00485   0.00717
1311  H 13  pz      -0.00053   0.00054   0.00627
1312  H 13  px       0.01150   0.00232  -0.00183
1313  H 13  py      -0.00468  -0.00541   0.01147
1314  H 13  pz      -0.00083  -0.01156   0.00866
1315  H 13  d 1      0.00001   0.00003  -0.00017
1316  H 13  d 2      0.00013   0.00012  -0.00006
1317  H 13  d 3     -0.00002   0.00002   0.00004
1318  H 13  d 4     -0.00002   0.00002   0.00030
1319  H 13  d 5     -0.00004  -0.00005   0.00042
1320  H 13  d 1      0.00010   0.00082   0.00234
1321  H 13  d 2     -0.00046   0.00006   0.00130
1322  H 13  d 3      0.00022   0.00032   0.00012
1323  H 13  d 4      0.00018  -0.00056  -0.00396
1324  H 13  d 5      0.00030   0.00030  -0.00374
1325  H 13  d 1     -0.00129  -0.00100  -0.00752
1326  H 13  d 2     -0.00193  -0.00288  -0.00542
1327  H 13  d 3      0.00264   0.00444  -0.00401
1328  H 13  d 4      0.00242   0.00652  -0.00196
1329  H 13  d 5     -0.00283  -0.00065  -0.00436
1330  H 13  f 1     -0.00003  -0.00011  -0.00028
1331  H 13  f 2     -0.00007  -0.00022  -0.00041
1332  H 13  f 3     -0.00002  -0.00004  -0.00005
1333  H 13  f 4     -0.00003  -0.00015  -0.00037
1334  H 13  f 5      0.00003   0.00005  -0.00001
1335  H 13  f 6      0.00000   0.00008   0.00023
1336  H 13  f 7     -0.00006  -0.00006   0.00012
1337  H 13  f 1      0.00026   0.00040  -0.00018
1338  H 13  f 2      0.00082   0.00145   0.00113
1339  H 13  f 3      0.00041   0.00076  -0.00017
1340  H 13  f 4      0.00022   0.00085   0.00096
1341  H 13  f 5     -0.00078  -0.00130   0.00118
1342  H 13  f 6     -0.00017  -0.00071   0.00192
1343  H 13  f 7      0.00053   0.00008   0.00160
1344  H 13  g 1      0.00001  -0.00000   0.00013
1345  H 13  g 2     -0.00003  -0.00005   0.00008
1346  H 13  g 3     -0.00004  -0.00009   0.00004
1347  H 13  g 4     -0.00001  -0.00000   0.00004
1348  H 13  g 5     -0.00003  -0.00008   0.00007
1349  H 13  g 6      0.00003   0.00002   0.00000
1350  H 13  g 7      0.00003   0.00005  -0.00011
1351  H 13  g 8     -0.00001   0.00001  -0.00020
1352  H 13  g 9     -0.00003  -0.00000  -0.00010
1353  H 14  s       -0.00160  -0.00240  -0.00077
1354  H 14  s        0.00077   0.00087  -0.01086
1355  H 14  s       -0.03978  -0.09981   0.01884
1356  H 14  s       -0.01644  -0.02502   0.07789
1357  H 14  s       -0.08090  -0.22841   0.13400
1358  H 14  px       0.00047   0.00071   0.00006
1359  H 14  py       0.00037   0.00059  -0.00010
1360  H 14  pz      -0.00010  -0.00006   0.00014
1361  H 14  px       0.00049   0.00010  -0.00120
1362  H 14  py      -0.00022  -0.00072  -0.00076
1363  H 14  pz       0.00057   0.00074  -0.00069
1364  H 14  px      -0.00525  -0.01690   0.01495
1365  H 14  py      -0.00114  -0.00912   0.00339
1366  H 14  pz      -0.00082  -0.00407   0.00886
1367  H 14  px      -0.00269  -0.01315   0.03608
1368  H 14  py      -0.00069  -0.01917   0.03873
1369  H 14  pz       0.00474  -0.00382  -0.00495
1370  H 14  d 1      0.00018   0.00025  -0.00033
1371  H 14  d 2     -0.00012  -0.00006   0.00008
1372  H 14  d 3     -0.00014  -0.00004   0.00017
1373  H 14  d 4     -0.00006  -0.00010  -0.00004
1374  H 14  d 5      0.00007   0.00014  -0.00016
1375  H 14  d 1     -0.00171  -0.00360   0.00178
1376  H 14  d 2      0.00054   0.00006   0.00026
1377  H 14  d 3      0.00121   0.00176  -0.00135
1378  H 14  d 4      0.00036   0.00022   0.00114
1379  H 14  d 5     -0.00083  -0.00162   0.00204
1380  H 14  d 1     -0.00216  -0.00421   0.01498
1381  H 14  d 2     -0.00043  -0.00392   0.00616
1382  H 14  d 3      0.00151   0.00378  -0.00841
1383  H 14  d 4     -0.00043  -0.00673   0.00429
1384  H 14  d 5     -0.00318  -0.00107   0.00712
1385  H 14  f 1     -0.00013  -0.00039  -0.00015
1386  H 14  f 2      0.00002   0.00006  -0.00001
1387  H 14  f 3      0.00007   0.00018   0.00003
1388  H 14  f 4      0.00005   0.00001  -0.00009
1389  H 14  f 5      0.00011   0.00031  -0.00003
1390  H 14  f 6      0.00001  -0.00003   0.00011
1391  H 14  f 7     -0.00000  -0.00001   0.00014
1392  H 14  f 1     -0.00094  -0.00060   0.00433
1393  H 14  f 2      0.00020  -0.00109   0.00159
1394  H 14  f 3      0.00022   0.00023  -0.00150
1395  H 14  f 4     -0.00036   0.00076  -0.00060
1396  H 14  f 5      0.00044   0.00007  -0.00228
1397  H 14  f 6      0.00003  -0.00014   0.00020
1398  H 14  f 7     -0.00006   0.00040  -0.00046
1399  H 14  g 1     -0.00008  -0.00008   0.00021
1400  H 14  g 2      0.00003  -0.00007   0.00016
1401  H 14  g 3      0.00005   0.00007  -0.00018
1402  H 14  g 4     -0.00001   0.00005  -0.00004
1403  H 14  g 5     -0.00004  -0.00006   0.00013
1404  H 14  g 6     -0.00001   0.00007  -0.00009
1405  H 14  g 7      0.00002   0.00002  -0.00009
1406  H 14  g 8      0.00000   0.00003  -0.00001
1407  H 14  g 9      0.00004   0.00007  -0.00015
1408  O 8   s       -0.00082  -0.00052   0.00038
1409  O 8   s        0.04105   0.02518  -0.03052
1410  O 8   s        0.00128   0.00027  -0.00140
1411  O 8   s        0.04901   0.04429  -0.04678
1412  O 8   s        0.04145  -0.06109   0.08110
1413  O 8   s        0.07653  -0.35832   0.20303
1414  O 8   px      -0.00717  -0.00136   0.00429
1415  O 8   py      -0.01695  -0.01807   0.01877
1416  O 8   pz      -0.00459  -0.01427   0.00853
1417  O 8   px      -0.01303  -0.00428   0.00851
1418  O 8   py      -0.02621  -0.03050   0.03194
1419  O 8   pz      -0.00582  -0.02237   0.01329
1420  O 8   px      -0.00562   0.00997  -0.00510
1421  O 8   py      -0.04812  -0.03844   0.03393
1422  O 8   pz      -0.02119  -0.03922   0.02231
1423  O 8   px       0.03482   0.08983  -0.05125
1424  O 8   py      -0.07291   0.01271  -0.00199
1425  O 8   pz      -0.05283  -0.03670   0.03070
1426  O 8   px       0.06992   0.19632  -0.13297
1427  O 8   py      -0.07971  -0.00737   0.03103
1428  O 8   pz      -0.15675  -0.16504   0.14137
1429  O 8   d 1     -0.00001  -0.00001   0.00001
1430  O 8   d 2     -0.00009  -0.00010   0.00006
1431  O 8   d 3      0.00003  -0.00002  -0.00003
1432  O 8   d 4     -0.00001   0.00002   0.00005
1433  O 8   d 5      0.00001  -0.00004  -0.00009
1434  O 8   d 1      0.00070   0.00065  -0.00061
1435  O 8   d 2     -0.00034   0.00046   0.00016
1436  O 8   d 3     -0.00035   0.00027   0.00055
1437  O 8   d 4      0.00034   0.00034  -0.00025
1438  O 8   d 5      0.00014   0.00001  -0.00013
1439  O 8   d 1     -0.00151  -0.00210   0.00107
1440  O 8   d 2      0.00516  -0.00248   0.00373
1441  O 8   d 3      0.00111   0.00039  -0.00285
1442  O 8   d 4      0.00365   0.00612  -0.00510
1443  O 8   d 5     -0.00869  -0.00551   0.00141
1444  O 8   d 1      0.00139  -0.01012  -0.00506
1445  O 8   d 2      0.03003   0.00624  -0.01442
1446  O 8   d 3     -0.00629   0.00133   0.00199
1447  O 8   d 4      0.01888   0.03833  -0.02942
1448  O 8   d 5     -0.03612  -0.03066   0.01844
1449  O 8   f 1     -0.00013  -0.00009   0.00006
1450  O 8   f 2      0.00009   0.00013  -0.00011
1451  O 8   f 3      0.00003  -0.00002   0.00000
1452  O 8   f 4     -0.00003   0.00001  -0.00003
1453  O 8   f 5      0.00001   0.00004  -0.00004
1454  O 8   f 6     -0.00006   0.00002  -0.00013
1455  O 8   f 7      0.00000  -0.00001   0.00001
1456  O 8   f 1      0.00093   0.00048   0.00000
1457  O 8   f 2     -0.00047  -0.00055   0.00040
1458  O 8   f 3     -0.00024   0.00002  -0.00008
1459  O 8   f 4      0.00064   0.00041  -0.00007
1460  O 8   f 5     -0.00001  -0.00008   0.00014
1461  O 8   f 6      0.00060  -0.00041   0.00121
1462  O 8   f 7      0.00024   0.00040  -0.00037
1463  O 8   f 1      0.00782   0.00722  -0.00409
1464  O 8   f 2     -0.00482  -0.00609   0.00670
1465  O 8   f 3      0.00106   0.00327  -0.00055
1466  O 8   f 4      0.00482   0.00520  -0.00337
1467  O 8   f 5     -0.00109   0.00031  -0.00013
1468  O 8   f 6      0.00616  -0.00352  -0.00227
1469  O 8   f 7      0.00346   0.00561  -0.00502
1470  O 8   g 1      0.00008   0.00012  -0.00009
1471  O 8   g 2     -0.00008  -0.00010   0.00003
1472  O 8   g 3      0.00001  -0.00002  -0.00001
1473  O 8   g 4      0.00005   0.00008  -0.00009
1474  O 8   g 5      0.00001  -0.00001  -0.00003
1475  O 8   g 6      0.00001  -0.00001   0.00001
1476  O 8   g 7     -0.00005  -0.00002  -0.00001
1477  O 8   g 8      0.00009   0.00010  -0.00016
1478  O 8   g 9     -0.00001  -0.00002   0.00005
1479  O 8   g 1     -0.00103  -0.00144   0.00105
1480  O 8   g 2     -0.00038   0.00054  -0.00014
1481  O 8   g 3      0.00007   0.00028  -0.00010
1482  O 8   g 4     -0.00116  -0.00115   0.00084
1483  O 8   g 5     -0.00052   0.00012   0.00017
1484  O 8   g 6      0.00004  -0.00032   0.00006
1485  O 8   g 7     -0.00004   0.00002   0.00020
1486  O 8   g 8     -0.00106  -0.00055   0.00127
1487  O 8   g 9      0.00089   0.00034  -0.00046
1488  O 8   h 1     -0.00003   0.00002   0.00002
1489  O 8   h 2      0.00001  -0.00002  -0.00006
1490  O 8   h 3      0.00010   0.00007  -0.00011
1491  O 8   h 4      0.00002   0.00005  -0.00002
1492  O 8   h 5      0.00010   0.00006  -0.00007
1493  O 8   h 6     -0.00002  -0.00008   0.00003
1494  O 8   h 7      0.00009   0.00003  -0.00007
1495  O 8   h 8     -0.00019  -0.00014   0.00014
1496  O 8   h 9      0.00000   0.00008  -0.00005
1497  O 8   h10     -0.00005  -0.00011   0.00003
1498  O 8   h11     -0.00011  -0.00008   0.00011
1499  H 15  s       -0.00343  -0.00236   0.00391
1500  H 15  s       -0.00137  -0.00387   0.01141
1501  H 15  s       -0.13119  -0.03553   0.05226
1502  H 15  s       -0.02979   0.25545  -0.20959
1503  H 15  s       -0.56802  -0.74185   0.60142
1504  H 15  px       0.00009   0.00008  -0.00016
1505  H 15  py       0.00134   0.00139  -0.00134
1506  H 15  pz       0.00078   0.00103  -0.00077
1507  H 15  px      -0.00075  -0.00075   0.00108
1508  H 15  py      -0.00113  -0.00170   0.00207
1509  H 15  pz       0.00032  -0.00164   0.00087
1510  H 15  px       0.00587   0.00796  -0.01258
1511  H 15  py      -0.00630   0.02863  -0.02732
1512  H 15  pz      -0.01277   0.01151  -0.01235
1513  H 15  px       0.00638  -0.01399   0.00140
1514  H 15  py      -0.01186   0.07544  -0.08089
1515  H 15  pz      -0.00221   0.04719  -0.07651
1516  H 15  d 1     -0.00021  -0.00026   0.00017
1517  H 15  d 2      0.00039   0.00028  -0.00021
1518  H 15  d 3      0.00032   0.00031  -0.00023
1519  H 15  d 4      0.00009  -0.00009   0.00025
1520  H 15  d 5     -0.00029  -0.00018  -0.00017
1521  H 15  d 1      0.00119   0.00199  -0.00173
1522  H 15  d 2     -0.00394  -0.00097   0.00022
1523  H 15  d 3     -0.00162  -0.00213   0.00139
1524  H 15  d 4     -0.00015   0.00107  -0.00183
1525  H 15  d 5      0.00259  -0.00027   0.00154
1526  H 15  d 1      0.00242   0.00088  -0.00504
1527  H 15  d 2     -0.00027   0.01354  -0.02292
1528  H 15  d 3     -0.00040  -0.00314  -0.00257
1529  H 15  d 4      0.00413  -0.00081  -0.00042
1530  H 15  d 5     -0.00417  -0.01427   0.01186
1531  H 15  f 1      0.00018  -0.00003   0.00003
1532  H 15  f 2      0.00009   0.00022  -0.00023
1533  H 15  f 3     -0.00020  -0.00007   0.00018
1534  H 15  f 4      0.00020   0.00008  -0.00011
1535  H 15  f 5     -0.00000   0.00014  -0.00009
1536  H 15  f 6      0.00039   0.00005  -0.00003
1537  H 15  f 7      0.00002  -0.00003   0.00001
1538  H 15  f 1     -0.00018  -0.00139   0.00149
1539  H 15  f 2      0.00038  -0.00006  -0.00048
1540  H 15  f 3     -0.00086  -0.00104  -0.00161
1541  H 15  f 4     -0.00030  -0.00171   0.00201
1542  H 15  f 5      0.00017  -0.00059   0.00025
1543  H 15  f 6      0.00008  -0.00125   0.00269
1544  H 15  f 7     -0.00083  -0.00101   0.00148
1545  H 15  g 1     -0.00003  -0.00006   0.00009
1546  H 15  g 2      0.00008  -0.00005   0.00012
1547  H 15  g 3      0.00004   0.00002  -0.00003
1548  H 15  g 4     -0.00001  -0.00011   0.00006
1549  H 15  g 5      0.00007  -0.00000   0.00011
1550  H 15  g 6      0.00001  -0.00001   0.00001
1551  H 15  g 7      0.00011   0.00007   0.00010
1552  H 15  g 8     -0.00004  -0.00005   0.00011
1553  H 15  g 9     -0.00000   0.00011  -0.00008
1554  H 16  s       -0.00229  -0.00190   0.00054
1555  H 16  s       -0.00892  -0.01135   0.00741
1556  H 16  s        0.02341   0.09557  -0.06254
1557  H 16  s        0.26108   0.32537  -0.30148
1558  H 16  s       -0.00328   0.32240  -0.11884
1559  H 16  px       0.00102   0.00019  -0.00055
1560  H 16  py       0.00008  -0.00013   0.00010
1561  H 16  pz      -0.00036   0.00011   0.00004
1562  H 16  px      -0.00306  -0.00156   0.00277
1563  H 16  py      -0.00062   0.00037   0.00015
1564  H 16  pz       0.00061  -0.00091   0.00054
1565  H 16  px       0.03769   0.04272  -0.03999
1566  H 16  py      -0.00401  -0.01068   0.00667
1567  H 16  pz      -0.01639  -0.01204   0.01263
1568  H 16  px       0.07233   0.11242  -0.08861
1569  H 16  py      -0.00084   0.00948  -0.01932
1570  H 16  pz      -0.01445  -0.02824   0.01288
1571  H 16  d 1      0.00005   0.00007   0.00013
1572  H 16  d 2     -0.00003   0.00001  -0.00005
1573  H 16  d 3     -0.00020   0.00004  -0.00005
1574  H 16  d 4     -0.00016   0.00008  -0.00006
1575  H 16  d 5     -0.00010  -0.00005   0.00014
1576  H 16  d 1     -0.00161  -0.00215   0.00099
1577  H 16  d 2      0.00060   0.00075  -0.00044
1578  H 16  d 3      0.00076  -0.00049   0.00042
1579  H 16  d 4     -0.00091  -0.00252   0.00222
1580  H 16  d 5      0.00164   0.00220  -0.00218
1581  H 16  d 1     -0.00639  -0.00725   0.00500
1582  H 16  d 2     -0.00042  -0.00016   0.00338
1583  H 16  d 3     -0.00746  -0.00865   0.00914
1584  H 16  d 4     -0.01616  -0.00810   0.01200
1585  H 16  d 5      0.01902   0.02185  -0.02330
1586  H 16  f 1     -0.00007  -0.00020   0.00008
1587  H 16  f 2      0.00015   0.00022  -0.00030
1588  H 16  f 3     -0.00002  -0.00014   0.00012
1589  H 16  f 4      0.00011   0.00020  -0.00013
1590  H 16  f 5      0.00003  -0.00001  -0.00006
1591  H 16  f 6     -0.00018  -0.00024   0.00013
1592  H 16  f 7     -0.00004   0.00009   0.00001
1593  H 16  f 1     -0.00168  -0.00151   0.00132
1594  H 16  f 2      0.00030   0.00035   0.00099
1595  H 16  f 3      0.00040   0.00094  -0.00108
1596  H 16  f 4      0.00095   0.00034  -0.00100
1597  H 16  f 5     -0.00017  -0.00083   0.00109
1598  H 16  f 6     -0.00182  -0.00128   0.00247
1599  H 16  f 7      0.00251   0.00254  -0.00334
1600  H 16  g 1     -0.00014  -0.00016   0.00013
1601  H 16  g 2      0.00009   0.00015  -0.00006
1602  H 16  g 3     -0.00002   0.00001  -0.00004
1603  H 16  g 4     -0.00004  -0.00004   0.00002
1604  H 16  g 5     -0.00004   0.00005  -0.00003
1605  H 16  g 6      0.00011   0.00009  -0.00013
1606  H 16  g 7      0.00001  -0.00003   0.00003
1607  H 16  g 8     -0.00017  -0.00018   0.00024
1608  H 16  g 9      0.00011   0.00015  -0.00015

          Ground-State Mulliken Net Atomic Charges

     Atom                 Charge (a.u.)
  ----------------------------------------
      1 O                    -0.798585
      2 H                     0.345760
      3 H                     0.400148
      4 O                    -0.675586
      5 H                     0.379909
      6 H                     0.301560
      7 O                    -0.643364
      8 H                     0.338362
      9 H                     0.338833
     10 O                    -0.730663
     11 H                     0.367892
     12 H                     0.365073
     13 O                    -0.656361
     14 H                     0.307088
     15 H                     0.355670
     16 O                    -0.630963
     17 H                     0.370669
     18 H                     0.255303
     19 O                    -0.598028
     20 H                     0.287297
     21 H                     0.305360
     22 O                    -0.668248
     23 H                     0.298034
     24 H                     0.384837
  ----------------------------------------
  Sum of atomic charges =     0.000000

 -----------------------------------------------------------------
                    Cartesian Multipole Moments
 -----------------------------------------------------------------
    Charge (ESU x 10^10)
                 0.0000
    Dipole Moment (Debye)
         X      -2.9299      Y      -7.4164      Z       2.8140
       Tot       8.4561
    Quadrupole Moments (Debye-Ang)
        XX     -68.8557     XY       0.7190     YY     -39.1218
        XZ      -9.6369     YZ       6.9376     ZZ     -59.4760
    Octopole Moments (Debye-Ang^2)
       XXX     -64.1146    XXY     -38.2422    XYY      -6.9941
       YYY     -42.1400    XXZ       5.8270    XYZ      27.4445
       YYZ      52.1615    XZZ     -34.7948    YZZ      -6.7507
       ZZZ      13.6466
    Hexadecapole Moments (Debye-Ang^3)
      XXXX   -1915.2909   XXXY      23.5768   XXYY    -414.7214
      XYYY     -22.3656   YYYY    -518.0645   XXXZ    -118.9661
      XXYZ      55.9337   XYYZ     -23.0348   YYYZ      56.8967
      XXZZ    -582.1555   XYZZ     -25.2227   YYZZ    -191.4084
      XZZZ      64.3453   YZZZ     119.7447   ZZZZ    -786.1555
 -----------------------------------------------------------------
 Total job time:  8379.13s(wall), 264316.15s(cpu) 
 Tue Jan 14 18:49:36 2025

        *************************************************************
        *                                                           *
        *  Thank you very much for using Q-Chem.  Have a nice day.  *
        *                                                           *
        *************************************************************


