                  Welcome to Q-Chem
     A Quantum Leap Into The Future Of Chemistry


 Q-Chem 6.2 (devel), Q-Chem, Inc., Pleasanton, CA (2024)

 E. Epifanovsky,  A. T. B. Gilbert,  Xintian Feng,  Joonho Lee,  Yuezhi Mao,  
 N. Mardirossian,  P. Pokhilko,  A. White,  M. Wormit,  M. P. Coons,  
 A. L. Dempwolff,  Zhengting Gan,  D. Hait,  P. R. Horn,  L. D. Jacobson,  
 I. Kaliman,  J. Kussmann,  A. W. Lange,  Ka Un Lao,  D. S. Levine,  Jie Liu,  
 S. C. McKenzie,  A. F. Morrison,  K. D. Nanda,  F. Plasser,  D. R. Rehn,  
 M. L. Vidal,  Zhi-Qiang You,  Ying Zhu,  Huseyin Aksu,  B. Alam,  
 B. Albrecht,  A. Aldossary,  E. Alguire,  J. H. Andersen,  
 J. E. Arias-Martinez,  V. Athavale,  D. Barton,  K. Begam,  A. Behn,  
 N. Bellonzi,  Y. A. Bernard,  E. J. Berquist,  H. Burton,  A. Carreras,  
 K. Carter-Fenk,  Mathew Chow,  Romit Chakraborty,  Chandrima Chakravarty,  
 Junhan Chen,  A. D. Chien,  K. D. Closser,  V. Cofer-Shabica,  L. Cunha,  
 S. Dasgupta,  Jia Deng,  Joseph Dickinson,  M. de Wergifosse,  
 M. Diedenhofen,  Hainam Do,  Wenjie Dou,  S. Ehlert,  Po-Tung Fang,  
 S. Fatehi,  Qingguo Feng,  Jonathan Fetherolf,  T. Friedhoff,  
 Thomas Froitzheim,  Sarai Folkestad,  B. Ganoe,  J. Gayvert,  Qinghui Ge,  
 G. Gidofalvi,  M. Gimferrer,  M. Goldey,  Montgomery Gray,  J. Gomes,  
 C. Gonzalez-Espinoza,  S. Gulania,  A. Gunina,  J. A. Gyamfi,  
 M. W. D. Hanson-Heine,  P. H. P. Harbach,  A. W. Hauser,  M. F. Herbst,  
 M. Hernandez Vera,  M. Hodecker,  Z. C. Holden,  S. Houck,  Xunkun Huang,  
 Kerwin Hui,  B. C. Huynh,  K. Ikeda,  M. Ivanov,  Nayanthara K. Jayadev,  
 Hyunjun Ji,  Zuxin Jin,  Hanjie Jiang,  Subrata Jana,  B. Kaduk,  
 S. Kaehler,  R. Kang,  K. Khistyaev,  Jaehoon Kim,  Yongbin Kim,  
 P. Klunzinger,  Z. Koczor-Benda,  Joong Hoon Koh,  D. Kosenkov,  
 Saikiran Kotaru,  L. Koulias,  T. Kowalczyk,  C. M. Krauter,  K. Kue,  
 A. Kunitsa,  T. Kus,  A. Landau,  K. V. Lawler,  D. Lefrancois,  S. Lehtola,  
 Rain Li,  Shaozhi Li,  Tao E. Li,  Yi-Pei Li,  Jiashu Liang,  M. Liebenthal,  
 Hung-Hsuan Lin,  You-Sheng Lin,  Fenglai Liu,  Kuan-Yu Liu,  Xiao Liu,  
 M. Loipersberger,  A. Luenser,  C. Malbon,  Aniket Mandal,  Manisha,  
 A. Manjanath,  P. Manohar,  E. Mansoor,  S. F. Manzer,  Shan-Ping Mao,  
 A. V. Marenich,  T. Markovich,  S. Mason,  F. Matz,  S. A. Maurer,  
 Samuel May,  Alexandra McIsaac,  P. F. McLaughlin,  M. F. S. J. Menger,  
 J.-M. Mewes,  S. A. Mewes,  P. Morgante,  Mohammad Mostafanejad,  
 Madhubani Mukherjee,  J. W. Mullinax,  Quyen Nguyen,  Avik Kumar Ojha,  
 K. J. Oosterbaan,  Eno Paenurk,  Xiaoliang Pan,  G. Paran,  V. Parravicini,  
 Alexander C. Paul,  Suranjan K. Paul,  F. Pavosevic,  Zheng Pei,  S. Prager,  
 E. I. Proynov,  E. Ramos,  B. Rana,  A. E. Rask,  A. Rettig,  R. M. Richard,  
 F. Rob,  E. Rossomme,  T. Scheele,  M. Scheurer,  M. Schneider,  
 P. E. Schneider,  Tim K. Schramm,  N. Sergueev,  S. M. Sharada,  
 Hengyuan Shen,  W. Skomorowski,  D. W. Small,  C. J. Stein,  
 Alistair J. Sterling,  Yingli Su,  Yu-Chuan Su,  E. J. Sundstrom,  
 J. Talbot,  Zhen Tao,  J. Thirman,  Hung-Yi Tsai,  T. Tsuchimochi,  
 N. M. Tubman,  C. Utku,  S. P. Veccham,  O. Vydrov,  Rahel Weiss,  
 J. Wenzel,  Jonathan Wong,  J. Witte,  H. Wu,  Yanze Wu,  A. Yamada,  
 Chou-Hsun Yang,  Kun Yao,  S. Yeganeh,  S. R. Yost,  Qi Yu,  A. Zech,  
 F. Zeller,  Chongxiao Zhao,  Igor Ying Zhang,  Xing Zhang,  Yu Zhang,  
 D. Zuev,  A. Aspuru-Guzik,  A. T. Bell,  N. A. Besley,  K. B. Bravaya,  
 B. R. Brooks,  D. Casanova,  Jeng-Da Chai,  Hsing-Ta Chen,  S. Coriani,  
 C. J. Cramer,  A. E. DePrince, III,  R. A. DiStasio Jr.,  A. Dreuw,  
 B. D. Dunietz,  T. R. Furlani,  W. A. Goddard III,  S. Grimme,  
 S. Hammes-Schiffer,  T. Head-Gordon,  W. J. Hehre,  Chao-Ping Hsu,  
 T.-C. Jagau,  Yousung Jung,  A. Klamt,  Jing Kong,  D. S. Lambrecht,  
 Xiangyuan Li,  WanZhen Liang,  N. J. Mayhall,  C. W. McCurdy,  J. B. Neaton,  
 T. Neudecker,  C. Ochsenfeld,  J. A. Parkhill,  R. Peverati,  
 V. A. Rassolov,  Haisheng Ren,  Yihan Shao,  L. V. Slipchenko,  
 R. P. Steele,  J. E. Subotnik,  A. J. W. Thom,  A. Tkatchenko,  
 D. G. Truhlar,  T. Van Voorhis,  Fan Wang,  T. A. Wesolowski,  K. B. Whaley,  
 H. L. Woodcock III,  P. M. Zimmerman,  S. Faraji,  P. M. W. Gill,  
 M. Head-Gordon,  J. M. Herbert,  A. I. Krylov

 Contributors to earlier versions of Q-Chem not listed above: 
 R. D. Adamson,  B. Austin,  R. Baer,  J. Baker,  G. J. O. Beran,  
 K. Brandhorst,  S. T. Brown,  E. F. C. Byrd,  Arup K. Chakraborty,  
 G. K. L. Chan,  Chun-Min Chang,  Yunqing Chen,  C.-L. Cheng,  
 Siu Hung Chien,  D. M. Chipman,  D. L. Crittenden,  H. Dachsel,  
 R. J. Doerksen,  A. D. Dutoi,  R. G. Edgar,  J. Fosso-Tande,  
 L. Fusti-Molnar,  D. Ghosh,  A. Ghysels,  A. Golubeva-Zadorozhnaya,  
 J. Gonthier,  M. S. Gordon,  S. R. Gwaltney,  G. Hawkins,  J. E. Herr,  
 A. Heyden,  S. Hirata,  E. G. Hohenstein,  G. Kedziora,  F. J. Keil,  
 C. Kelley,  Jihan Kim,  R. A. King,  R. Z. Khaliullin,  P. P. Korambath,  
 W. Kurlancheek,  A. Laurent,  A. M. Lee,  M. S. Lee,  S. V. Levchenko,  
 Ching Yeh Lin,  D. Liotard,  E. Livshits,  R. C. Lochan,  I. Lotan,  
 L. A. Martinez-Martinez,  P. E. Maslen,  N. Nair,  D. P. O'Neill,  
 D. Neuhauser,  E. Neuscamman,  C. M. Oana,  R. Olivares-Amaya,  R. Olson,  
 T. M. Perrine,  B. Peters,  P. A. Pieniazek,  A. Prociuk,  Y. M. Rhee,  
 J. Ritchie,  M. A. Rohrdanz,  E. Rosta,  N. J. Russ,  H. F. Schaefer III,  
 M. W. Schmidt,  N. E. Schultz,  S. Sharma,  N. Shenvi,  C. D. Sherrill,  
 A. C. Simmonett,  A. Sodt,  T. Stein,  D. Stuck,  K. S. Thanthiriwatte,  
 V. Vanovschi,  L. Vogt,  Tao Wang,  A. Warshel,  M. A. Watson,  
 C. F. Williams,  Q. Wu,  X. Xu,  Jun Yang,  W. Zhang,  Yan Zhao

   Please cite Q-Chem as follows:
  "Software for the frontiers of quantum chemistry:
   An overview of developments in the Q-Chem 5 package"
   J. Chem. Phys. 155, 084801 (2021)
   https://doi.org/10.1063/5.0055522 (open access)

 Q-Chem 6.2.2 for Intel X86 EM64T Linux

 Parts of Q-Chem use Armadillo 9.900.5 (Nocturnal Misbehaviour).
 http://arma.sourceforge.net/

 Q-Chem begins on Tue Dec 31 16:14:26 2024  

 Host: compute-0-15.local
0

     Scratch files written to /scratch/keith/A2D2_1//
 Processing $rem in /home/keith/software/qchem/qchem_622/config/preferences:
 Processing $rem in /home/keith/.qchemrc:

 Checking the input file for inconsistencies... 	...done.

--------------------------------------------------------------
User input:
--------------------------------------------------------------
$molecule
read
$end

$rem
method                    b3lyp 
basis                     cc-pv5z 
mem_total                 63000
mem_static                8000
thresh                    12
scf_convergence           8
xc_grid                   000075000302
max_scf_cycles            2000
symmetry                  false
sym_ignore                true
scf_guess                 read
skip_scfman               true
cis_n_roots               150
cis_triplets              false
rpa                       false 
trnss                     true
trtype                    3
n_sol                     1
nto_pairs                 2
gui                       2
print_orbitals            true
state_analysis            true
$end

$solute 
5 
$end
--------------------------------------------------------------
 ----------------------------------------------------------------
             Standard Nuclear Orientation (Angstroms)
    I     Atom           X                Y                Z
 ----------------------------------------------------------------
    1      O       0.8673700000     3.8245800000     0.1948500000
    2      O      -0.4763300000     1.4378800000     0.0318500000
    3      H      -1.4367300000     1.5455800000     0.0878500000
    4      H      -0.3213300000     0.4888800000     0.2588500000
    5      H       0.2293700000     4.5095800000     0.3418500000
    6      H       0.2849700000     3.0915800000     0.2518500000
    7      O       0.1456700000   -18.6104200000    -0.2211500000
    8      H      -0.4091300000   -19.3674200000    -0.1321500000
    9      H      -0.0800300000   -18.0930200000    -1.0171500000
   10      O       1.9443700000     2.0615800000    -1.9811500000
   11      H       2.6683700000     2.0055800000    -1.3401500000
   12      H       1.5693700000     2.8585800000    -1.5591500000
   13      O       2.2953700000     2.5135800000     2.2728500000
   14      H       2.9613700000     3.0325800000     2.7688500000
   15      H       1.9963700000     3.0275800000     1.4778500000
   16      O      -1.6253300000     4.9025800000     0.9488500000
   17      H      -2.5216300000     5.3115800000     0.8818500000
   18      H      -1.5917300000     4.2445800000     1.7258500000
   19      O      -2.9795300000     3.7955800000    -1.3521500000
   20      H      -3.6315300000     4.4625800000    -1.4691500000
   21      H      -2.4412300000     4.0665800000    -0.5941500000
 ----------------------------------------------------------------
 Nuclear Repulsion Energy =         294.65842812 hartrees
 There are       35 alpha and       35 beta electrons
 Requested basis set is cc-pV5Z
 There are 357 shells and 1407 basis functions

 Total QAlloc Memory Limit  63000 MB
 Mega-Array Size      7821 MB
 MEM_STATIC part      8000 MB

 A cutoff of  1.0D-12 yielded  31917 shell pairs
 There are    431577 function pairs (    719352 Cartesian)
 Smallest overlap matrix eigenvalue = 2.12E-05

 Scale SEOQF with 1.000000e-01/1.000000e-03/1.000000e-01

 Standard Electronic Orientation quadrupole field applied
 Nucleus-field energy     =    -0.0000000015 hartrees
 Guess MOs from SCF MO coefficient file
 Reading MOs from coefficient file
 Reading MOs from coefficient file
 Skipping gen_scfman as requested.
 MAX_CIS_SUBSPACE fits in available memory
 Direct TDDFT/TDA calculation will be performed
 Exchange:     0.2000 Hartree-Fock + 0.0800 Slater + 0.7200 B88
 Correlation:  0.1900 VWN1RPA + 0.8100 LYP
 Using Euler-Maclaurin-Lebedev (75,302) quadrature formula
 Singlet excitation energies requested
 CIS energy converged when residual is below 10e- 6
   
 ***Using a Restricted Set of Single Excitations***
   
 RCIS calculation
   
 Excitations from specified occupied orbitals
 -------------------------------------------------------------
              Orbitals in Truncated CIS space
 -------------------------------------------------------------
     5  36  37  38  39  40  41  42  43  44  45  46  47  48  49
    50  51  52  53  54  55  56  57  58  59  60  61  62  63  64
    65  66  67  68  69  70  71  72  73  74  75  76  77  78  79
    80  81  82  83  84  85  86  87  88  89  90  91  92  93  94
    95  96  97  98  99 100 101 102 103 104 105 106 107 108 109
   110 111 112 113 114 115 116 117 118 119 120 121 122 123 124
   125 126 127 128 129 130 131 132 133 134 135 136 137 138 139
   140 141 142 143 144 145 146 147 148 149 150 151 152 153 154
   155 156 157 158 159 160 161 162 163 164 165 166 167 168 169
   170 171 172 173 174 175 176 177 178 179 180 181 182 183 184
   185 186 187 188 189 190 191 192 193 194 195 196 197 198 199
   200 201 202 203 204 205 206 207 208 209 210 211 212 213 214
   215 216 217 218 219 220 221 222 223 224 225 226 227 228 229
   230 231 232 233 234 235 236 237 238 239 240 241 242 243 244
   245 246 247 248 249 250 251 252 253 254 255 256 257 258 259
   260 261 262 263 264 265 266 267 268 269 270 271 272 273 274
   275 276 277 278 279 280 281 282 283 284 285 286 287 288 289
   290 291 292 293 294 295 296 297 298 299 300 301 302 303 304
   305 306 307 308 309 310 311 312 313 314 315 316 317 318 319
   320 321 322 323 324 325 326 327 328 329 330 331 332 333 334
   335 336 337 338 339 340 341 342 343 344 345 346 347 348 349
   350 351 352 353 354 355 356 357 358 359 360 361 362 363 364
   365 366 367 368 369 370 371 372 373 374 375 376 377 378 379
   380 381 382 383 384 385 386 387 388 389 390 391 392 393 394
   395 396 397 398 399 400 401 402 403 404 405 406 407 408 409
   410 411 412 413 414 415 416 417 418 419 420 421 422 423 424
   425 426 427 428 429 430 431 432 433 434 435 436 437 438 439
   440 441 442 443 444 445 446 447 448 449 450 451 452 453 454
   455 456 457 458 459 460 461 462 463 464 465 466 467 468 469
   470 471 472 473 474 475 476 477 478 479 480 481 482 483 484
   485 486 487 488 489 490 491 492 493 494 495 496 497 498 499
   500 501 502 503 504 505 506 507 508 509 510 511 512 513 514
   515 516 517 518 519 520 521 522 523 524 525 526 527 528 529
   530 531 532 533 534 535 536 537 538 539 540 541 542 543 544
   545 546 547 548 549 550 551 552 553 554 555 556 557 558 559
   560 561 562 563 564 565 566 567 568 569 570 571 572 573 574
   575 576 577 578 579 580 581 582 583 584 585 586 587 588 589
   590 591 592 593 594 595 596 597 598 599 600 601 602 603 604
   605 606 607 608 609 610 611 612 613 614 615 616 617 618 619
   620 621 622 623 624 625 626 627 628 629 630 631 632 633 634
   635 636 637 638 639 640 641 642 643 644 645 646 647 648 649
   650 651 652 653 654 655 656 657 658 659 660 661 662 663 664
   665 666 667 668 669 670 671 672 673 674 675 676 677 678 679
   680 681 682 683 684 685 686 687 688 689 690 691 692 693 694
   695 696 697 698 699 700 701 702 703 704 705 706 707 708 709
   710 711 712 713 714 715 716 717 718 719 720 721 722 723 724
   725 726 727 728 729 730 731 732 733 734 735 736 737 738 739
   740 741 742 743 744 745 746 747 748 749 750 751 752 753 754
   755 756 757 758 759 760 761 762 763 764 765 766 767 768 769
   770 771 772 773 774 775 776 777 778 779 780 781 782 783 784
   785 786 787 788 789 790 791 792 793 794 795 796 797 798 799
   800 801 802 803 804 805 806 807 808 809 810 811 812 813 814
   815 816 817 818 819 820 821 822 823 824 825 826 827 828 829
   830 831 832 833 834 835 836 837 838 839 840 841 842 843 844
   845 846 847 848 849 850 851 852 853 854 855 856 857 858 859
   860 861 862 863 864 865 866 867 868 869 870 871 872 873 874
   875 876 877 878 879 880 881 882 883 884 885 886 887 888 889
   890 891 892 893 894 895 896 897 898 899 900 901 902 903 904
   905 906 907 908 909 910 911 912 913 914 915 916 917 918 919
   920 921 922 923 924 925 926 927 928 929 930 931 932 933 934
   935 936 937 938 939 940 941 942 943 944 945 946 947 948 949
   950 951 952 953 954 955 956 957 958 959 960 961 962 963 964
   965 966 967 968 969 970 971 972 973 974 975 976 977 978 979
   980 981 982 983 984 985 986 987 988 989 990 991 992 993 994
   995 996 997 998 9991000100110021003100410051006100710081009
  101010111012101310141015101610171018101910201021102210231024
  102510261027102810291030103110321033103410351036103710381039
  104010411042104310441045104610471048104910501051105210531054
  105510561057105810591060106110621063106410651066106710681069
  107010711072107310741075107610771078107910801081108210831084
  108510861087108810891090109110921093109410951096109710981099
  110011011102110311041105110611071108110911101111111211131114
  111511161117111811191120112111221123112411251126112711281129
  113011311132113311341135113611371138113911401141114211431144
  114511461147114811491150115111521153115411551156115711581159
  116011611162116311641165116611671168116911701171117211731174
  117511761177117811791180118111821183118411851186118711881189
  119011911192119311941195119611971198119912001201120212031204
  120512061207120812091210121112121213121412151216121712181219
  122012211222122312241225122612271228122912301231123212331234
  123512361237123812391240124112421243124412451246124712481249
  125012511252125312541255125612571258125912601261126212631264
  126512661267126812691270127112721273127412751276127712781279
  128012811282128312841285128612871288128912901291129212931294
  129512961297129812991300130113021303130413051306130713081309
  131013111312131313141315131613171318131913201321132213231324
  132513261327132813291330133113321333133413351336133713381339
  134013411342134313441345134613471348134913501351135213531354
  135513561357135813591360136113621363136413651366136713681369
  137013711372137313741375137613771378137913801381138213831384
  138513861387138813891390139113921393139413951396139713981399
  14001401140214031404140514061407
   
    Number of Occupied Orbitals =    1  out of    35
    Number of Virtual Orbitals  = 1372  out of  1372
 -------------------------------------------------------------
 Number of Roots adjusted to:         150
 ---------------------------------------------------
 Iter    Rts Conv    Rts Left    Ttl Dev     Max Dev
 ---------------------------------------------------
   1        23         127      0.011841    0.000231
   2        46         104      0.007841    0.000338
   3       144           6      0.007548    0.000149
   4       149           1      0.007543    0.000149
   5       150           0      0.007543    0.000149    Roots Converged
 ---------------------------------------------------

 ---------------------------------------------------
         TDDFT/TDA Excitation Energies              
 ---------------------------------------------------

 Excited state   1: excitation energy (eV) =     518.1080
 Total energy for state   1:                  -516.28189835 au
    Multiplicity: Singlet
    Trans. Mom.: -0.0106 X   0.0025 Y   0.0046 Z
    Strength   :     0.0017661791
    D(    5) --> V(    1) amplitude =  0.9915

 Excited state   2: excitation energy (eV) =     519.4354
 Total energy for state   2:                  -516.23311736 au
    Multiplicity: Singlet
    Trans. Mom.:  0.0002 X   0.0088 Y   0.0002 Z
    Strength   :     0.0009941916
    D(    5) --> V(    2) amplitude =  0.9887

 Excited state   3: excitation energy (eV) =     519.9587
 Total energy for state   3:                  -516.21388533 au
    Multiplicity: Singlet
    Trans. Mom.:  0.0041 X   0.0071 Y   0.0074 Z
    Strength   :     0.0015519353
    D(    5) --> V(    4) amplitude =  0.8498
    D(    5) --> V(    5) amplitude = -0.5036

 Excited state   4: excitation energy (eV) =     520.0626
 Total energy for state   4:                  -516.21006844 au
    Multiplicity: Singlet
    Trans. Mom.: -0.0045 X  -0.0040 Y   0.0046 Z
    Strength   :     0.0007344675
    D(    5) --> V(    4) amplitude =  0.5063
    D(    5) --> V(    5) amplitude =  0.8296

 Excited state   5: excitation energy (eV) =     520.2939
 Total energy for state   5:                  -516.20156665 au
    Multiplicity: Singlet
    Trans. Mom.:  0.0000 X   0.0000 Y   0.0000 Z
    Strength   :     0.0000000000
    D(    5) --> V(    3) amplitude =  1.0000

 Excited state   6: excitation energy (eV) =     520.7975
 Total energy for state   6:                  -516.18306208 au
    Multiplicity: Singlet
    Trans. Mom.:  0.0067 X  -0.0088 Y   0.0109 Z
    Strength   :     0.0030838499
    D(    5) --> V(    6) amplitude = -0.6262
    D(    5) --> V(    7) amplitude =  0.6860
    D(    5) --> V(    9) amplitude = -0.2426

 Excited state   7: excitation energy (eV) =     520.9754
 Total energy for state   7:                  -516.17652303 au
    Multiplicity: Singlet
    Trans. Mom.:  0.0012 X  -0.0034 Y   0.0043 Z
    Strength   :     0.0004054441
    D(    5) --> V(    6) amplitude =  0.7664
    D(    5) --> V(    7) amplitude =  0.5903
    D(    5) --> V(    9) amplitude = -0.2174

 Excited state   8: excitation energy (eV) =     521.1973
 Total energy for state   8:                  -516.16836806 au
    Multiplicity: Singlet
    Trans. Mom.: -0.0136 X   0.0131 Y   0.0035 Z
    Strength   :     0.0047035342
    D(    5) --> V(    7) amplitude =  0.3845
    D(    5) --> V(    9) amplitude =  0.7184
    D(    5) --> V(   10) amplitude =  0.5565

 Excited state   9: excitation energy (eV) =     521.6490
 Total energy for state   9:                  -516.15176922 au
    Multiplicity: Singlet
    Trans. Mom.: -0.0011 X  -0.0023 Y   0.0032 Z
    Strength   :     0.0002120652
    D(    5) --> V(    9) amplitude = -0.5913
    D(    5) --> V(   10) amplitude =  0.7998

 Excited state  10: excitation energy (eV) =     521.9805
 Total energy for state  10:                  -516.13958493 au
    Multiplicity: Singlet
    Trans. Mom.:  0.0000 X   0.0000 Y  -0.0000 Z
    Strength   :     0.0000000000
    D(    5) --> V(    8) amplitude =  1.0000

 Excited state  11: excitation energy (eV) =     522.4110
 Total energy for state  11:                  -516.12376454 au
    Multiplicity: Singlet
    Trans. Mom.:  0.0093 X   0.0162 Y   0.0155 Z
    Strength   :     0.0075500673
    D(    5) --> V(   11) amplitude =  0.9698

 Excited state  12: excitation energy (eV) =     522.7179
 Total energy for state  12:                  -516.11248773 au
    Multiplicity: Singlet
    Trans. Mom.: -0.0148 X  -0.0133 Y   0.0179 Z
    Strength   :     0.0091803652
    D(    5) --> V(   12) amplitude =  0.8876
    D(    5) --> V(   13) amplitude = -0.3991

 Excited state  13: excitation energy (eV) =     523.0268
 Total energy for state  13:                  -516.10113669 au
    Multiplicity: Singlet
    Trans. Mom.: -0.0126 X   0.0109 Y  -0.0020 Z
    Strength   :     0.0035943979
    D(    5) --> V(   12) amplitude =  0.3894
    D(    5) --> V(   13) amplitude =  0.8894

 Excited state  14: excitation energy (eV) =     523.6857
 Total energy for state  14:                  -516.07692215 au
    Multiplicity: Singlet
    Trans. Mom.: -0.0173 X   0.0012 Y   0.0013 Z
    Strength   :     0.0038960678
    D(    5) --> V(   14) amplitude =  0.9090
    D(    5) --> V(   15) amplitude =  0.2543
    D(    5) --> V(   17) amplitude =  0.2497

 Excited state  15: excitation energy (eV) =     523.9800
 Total energy for state  15:                  -516.06610428 au
    Multiplicity: Singlet
    Trans. Mom.: -0.0135 X  -0.0071 Y  -0.0011 Z
    Strength   :     0.0030038209
    D(    5) --> V(   14) amplitude = -0.2506
    D(    5) --> V(   15) amplitude =  0.8447
    D(    5) --> V(   16) amplitude =  0.3866

 Excited state  16: excitation energy (eV) =     524.1474
 Total energy for state  16:                  -516.05995433 au
    Multiplicity: Singlet
    Trans. Mom.: -0.0093 X   0.0092 Y  -0.0007 Z
    Strength   :     0.0021968201
    D(    5) --> V(   14) amplitude = -0.2696
    D(    5) --> V(   15) amplitude =  0.2992
    D(    5) --> V(   16) amplitude = -0.5636
    D(    5) --> V(   17) amplitude =  0.6486

 Excited state  17: excitation energy (eV) =     524.3552
 Total energy for state  17:                  -516.05231806 au
    Multiplicity: Singlet
    Trans. Mom.: -0.0076 X   0.0184 Y   0.0095 Z
    Strength   :     0.0062224317
    D(    5) --> V(   15) amplitude = -0.2268
    D(    5) --> V(   16) amplitude =  0.6945
    D(    5) --> V(   17) amplitude =  0.5922

 Excited state  18: excitation energy (eV) =     524.7579
 Total energy for state  18:                  -516.03751787 au
    Multiplicity: Singlet
    Trans. Mom.:  0.0054 X  -0.0039 Y   0.0062 Z
    Strength   :     0.0010538347
    D(    5) --> V(   18) amplitude =  0.9198
    D(    5) --> V(   20) amplitude = -0.2883

 Excited state  19: excitation energy (eV) =     525.0070
 Total energy for state  19:                  -516.02836473 au
    Multiplicity: Singlet
    Trans. Mom.: -0.0023 X   0.0127 Y  -0.0033 Z
    Strength   :     0.0022814614
    D(    5) --> V(   17) amplitude = -0.2912
    D(    5) --> V(   18) amplitude =  0.2151
    D(    5) --> V(   20) amplitude =  0.8295
    D(    5) --> V(   22) amplitude =  0.2151

 Excited state  20: excitation energy (eV) =     525.3822
 Total energy for state  20:                  -516.01457745 au
    Multiplicity: Singlet
    Trans. Mom.:  0.0114 X   0.0002 Y  -0.0017 Z
    Strength   :     0.0017187414
    D(    5) --> V(   21) amplitude =  0.8668
    D(    5) --> V(   22) amplitude = -0.4359

 Excited state  21: excitation energy (eV) =     525.6567
 Total energy for state  21:                  -516.00449020 au
    Multiplicity: Singlet
    Trans. Mom.: -0.0048 X  -0.0003 Y  -0.0012 Z
    Strength   :     0.0003110921
    D(    5) --> V(   20) amplitude = -0.2750
    D(    5) --> V(   21) amplitude =  0.3879
    D(    5) --> V(   22) amplitude =  0.8503

 Excited state  22: excitation energy (eV) =     525.8485
 Total energy for state  22:                  -515.99744068 au
    Multiplicity: Singlet
    Trans. Mom.: -0.0024 X   0.0215 Y  -0.0008 Z
    Strength   :     0.0060366108
    D(    5) --> V(   20) amplitude = -0.2616
    D(    5) --> V(   24) amplitude =  0.6898
    D(    5) --> V(   25) amplitude =  0.4488
    D(    5) --> V(   33) amplitude = -0.3406

 Excited state  23: excitation energy (eV) =     525.9225
 Total energy for state  23:                  -515.99472004 au
    Multiplicity: Singlet
    Trans. Mom.: -0.0000 X   0.0000 Y  -0.0000 Z
    Strength   :     0.0000000000
    D(    5) --> V(   19) amplitude =  1.0000

 Excited state  24: excitation energy (eV) =     525.9539
 Total energy for state  24:                  -515.99356549 au
    Multiplicity: Singlet
    Trans. Mom.: -0.0131 X   0.0025 Y   0.0003 Z
    Strength   :     0.0022996165
    D(    5) --> V(   24) amplitude = -0.4564
    D(    5) --> V(   25) amplitude =  0.7317
    D(    5) --> V(   26) amplitude =  0.4350

 Excited state  25: excitation energy (eV) =     526.0447
 Total energy for state  25:                  -515.99023136 au
    Multiplicity: Singlet
    Trans. Mom.: -0.0028 X   0.0121 Y   0.0068 Z
    Strength   :     0.0025836245
    D(    5) --> V(   24) amplitude =  0.2811
    D(    5) --> V(   25) amplitude = -0.3601
    D(    5) --> V(   26) amplitude =  0.8067

 Excited state  26: excitation energy (eV) =     526.3485
 Total energy for state  26:                  -515.97906411 au
    Multiplicity: Singlet
    Trans. Mom.: -0.0034 X   0.0070 Y  -0.0238 Z
    Strength   :     0.0081080683
    D(    5) --> V(   29) amplitude = -0.2543
    D(    5) --> V(   30) amplitude =  0.7142
    D(    5) --> V(   31) amplitude =  0.4033
    D(    5) --> V(   32) amplitude = -0.3556

 Excited state  27: excitation energy (eV) =     526.4870
 Total energy for state  27:                  -515.97397556 au
    Multiplicity: Singlet
    Trans. Mom.:  0.0030 X  -0.0190 Y  -0.0045 Z
    Strength   :     0.0050275884
    D(    5) --> V(   24) amplitude =  0.3842
    D(    5) --> V(   26) amplitude =  0.2295
    D(    5) --> V(   29) amplitude =  0.4742
    D(    5) --> V(   31) amplitude =  0.4205
    D(    5) --> V(   32) amplitude = -0.2438
    D(    5) --> V(   33) amplitude =  0.4550

 Excited state  28: excitation energy (eV) =     526.6519
 Total energy for state  28:                  -515.96791642 au
    Multiplicity: Singlet
    Trans. Mom.: -0.0029 X   0.0047 Y   0.0045 Z
    Strength   :     0.0006542122
    D(    5) --> V(   29) amplitude =  0.7831
    D(    5) --> V(   30) amplitude =  0.3429
    D(    5) --> V(   32) amplitude =  0.2188
    D(    5) --> V(   33) amplitude = -0.2947

 Excited state  29: excitation energy (eV) =     526.6810
 Total energy for state  29:                  -515.96684453 au
    Multiplicity: Singlet
    Trans. Mom.:  0.0000 X   0.0000 Y   0.0000 Z
    Strength   :     0.0000000000
    D(    5) --> V(   23) amplitude =  1.0000

 Excited state  30: excitation energy (eV) =     526.7875
 Total energy for state  30:                  -515.96293291 au
    Multiplicity: Singlet
    Trans. Mom.:  0.0052 X  -0.0095 Y   0.0037 Z
    Strength   :     0.0016841807
    D(    5) --> V(   30) amplitude =  0.5291
    D(    5) --> V(   31) amplitude = -0.2412
    D(    5) --> V(   32) amplitude =  0.4701
    D(    5) --> V(   33) amplitude =  0.5928

 Excited state  31: excitation energy (eV) =     526.9325
 Total energy for state  31:                  -515.95760278 au
    Multiplicity: Singlet
    Trans. Mom.:  0.0021 X   0.0031 Y   0.0029 Z
    Strength   :     0.0002869919
    D(    5) --> V(   31) amplitude =  0.6913
    D(    5) --> V(   32) amplitude =  0.6701

 Excited state  32: excitation energy (eV) =     527.1496
 Total energy for state  32:                  -515.94962609 au
    Multiplicity: Singlet
    Trans. Mom.: -0.0000 X   0.0000 Y   0.0000 Z
    Strength   :     0.0000000000
    D(    5) --> V(   27) amplitude =  0.9998

 Excited state  33: excitation energy (eV) =     527.1734
 Total energy for state  33:                  -515.94874905 au
    Multiplicity: Singlet
    Trans. Mom.: -0.0172 X  -0.0070 Y   0.0037 Z
    Strength   :     0.0046426863
    D(    5) --> V(   34) amplitude =  0.6793
    D(    5) --> V(   35) amplitude = -0.5884

 Excited state  34: excitation energy (eV) =     527.2185
 Total energy for state  34:                  -515.94709387 au
    Multiplicity: Singlet
    Trans. Mom.:  0.0000 X   0.0000 Y   0.0000 Z
    Strength   :     0.0000000000
    D(    5) --> V(   28) amplitude =  0.9997

 Excited state  35: excitation energy (eV) =     527.4508
 Total energy for state  35:                  -515.93855700 au
    Multiplicity: Singlet
    Trans. Mom.:  0.0060 X   0.0091 Y   0.0027 Z
    Strength   :     0.0016381526
    D(    5) --> V(   33) amplitude =  0.2249
    D(    5) --> V(   34) amplitude =  0.4756
    D(    5) --> V(   35) amplitude =  0.4601
    D(    5) --> V(   36) amplitude =  0.6584

 Excited state  36: excitation energy (eV) =     527.4740
 Total energy for state  36:                  -515.93770238 au
    Multiplicity: Singlet
    Trans. Mom.:  0.0039 X   0.0039 Y  -0.0035 Z
    Strength   :     0.0005505876
    D(    5) --> V(   34) amplitude = -0.5044
    D(    5) --> V(   35) amplitude = -0.4364
    D(    5) --> V(   36) amplitude =  0.6539

 Excited state  37: excitation energy (eV) =     527.6471
 Total energy for state  37:                  -515.93134267 au
    Multiplicity: Singlet
    Trans. Mom.: -0.0121 X   0.0034 Y  -0.0054 Z
    Strength   :     0.0024266122
    D(    5) --> V(   35) amplitude =  0.2858
    D(    5) --> V(   37) amplitude =  0.8668
    D(    5) --> V(   39) amplitude = -0.2146

 Excited state  38: excitation energy (eV) =     527.9568
 Total energy for state  38:                  -515.91996279 au
    Multiplicity: Singlet
    Trans. Mom.: -0.0000 X  -0.0077 Y  -0.0060 Z
    Strength   :     0.0012201174
    D(    5) --> V(   36) amplitude =  0.2264
    D(    5) --> V(   37) amplitude =  0.2653
    D(    5) --> V(   38) amplitude =  0.8875

 Excited state  39: excitation energy (eV) =     528.0606
 Total energy for state  39:                  -515.91614668 au
    Multiplicity: Singlet
    Trans. Mom.:  0.0098 X   0.0014 Y   0.0088 Z
    Strength   :     0.0022836801
    D(    5) --> V(   37) amplitude =  0.2931
    D(    5) --> V(   38) amplitude = -0.2886
    D(    5) --> V(   39) amplitude =  0.8425

 Excited state  40: excitation energy (eV) =     528.3641
 Total energy for state  40:                  -515.90499181 au
    Multiplicity: Singlet
    Trans. Mom.:  0.0131 X   0.0174 Y  -0.0016 Z
    Strength   :     0.0061588187
    D(    5) --> V(   40) amplitude =  0.3472
    D(    5) --> V(   41) amplitude =  0.6955
    D(    5) --> V(   42) amplitude = -0.3189
    D(    5) --> V(   44) amplitude =  0.3092

 Excited state  41: excitation energy (eV) =     528.4824
 Total energy for state  41:                  -515.90064678 au
    Multiplicity: Singlet
    Trans. Mom.:  0.0004 X  -0.0081 Y  -0.0019 Z
    Strength   :     0.0008917085
    D(    5) --> V(   40) amplitude =  0.8930
    D(    5) --> V(   41) amplitude = -0.3836

 Excited state  42: excitation energy (eV) =     528.7426
 Total energy for state  42:                  -515.89108420 au
    Multiplicity: Singlet
    Trans. Mom.:  0.0040 X  -0.0048 Y   0.0003 Z
    Strength   :     0.0005091094
    D(    5) --> V(   40) amplitude =  0.2184
    D(    5) --> V(   41) amplitude =  0.3712
    D(    5) --> V(   42) amplitude =  0.7712
    D(    5) --> V(   44) amplitude = -0.3896

 Excited state  43: excitation energy (eV) =     528.9497
 Total energy for state  43:                  -515.88347390 au
    Multiplicity: Singlet
    Trans. Mom.:  0.0079 X  -0.0074 Y  -0.0021 Z
    Strength   :     0.0015689452
    D(    5) --> V(   42) amplitude =  0.4602
    D(    5) --> V(   44) amplitude =  0.7868
    D(    5) --> V(   45) amplitude =  0.2545

 Excited state  44: excitation energy (eV) =     529.0952
 Total energy for state  44:                  -515.87812483 au
    Multiplicity: Singlet
    Trans. Mom.: -0.0070 X  -0.0113 Y   0.0028 Z
    Strength   :     0.0023820766
    D(    5) --> V(   41) amplitude =  0.2942
    D(    5) --> V(   45) amplitude =  0.8946

 Excited state  45: excitation energy (eV) =     529.4232
 Total energy for state  45:                  -515.86607194 au
    Multiplicity: Singlet
    Trans. Mom.:  0.0069 X   0.0007 Y   0.0055 Z
    Strength   :     0.0010245015
    D(    5) --> V(   46) amplitude =  0.9695

 Excited state  46: excitation energy (eV) =     529.7248
 Total energy for state  46:                  -515.85498837 au
    Multiplicity: Singlet
    Trans. Mom.: -0.0000 X  -0.0000 Y   0.0000 Z
    Strength   :     0.0000000000
    D(    5) --> V(   43) amplitude =  1.0000

 Excited state  47: excitation energy (eV) =     529.7996
 Total energy for state  47:                  -515.85223847 au
    Multiplicity: Singlet
    Trans. Mom.: -0.0034 X   0.0092 Y   0.0115 Z
    Strength   :     0.0029664889
    D(    5) --> V(   48) amplitude =  0.9609

 Excited state  48: excitation energy (eV) =     530.2138
 Total energy for state  48:                  -515.83701889 au
    Multiplicity: Singlet
    Trans. Mom.:  0.0101 X  -0.0006 Y   0.0026 Z
    Strength   :     0.0014249541
    D(    5) --> V(   49) amplitude =  0.9727

 Excited state  49: excitation energy (eV) =     530.4125
 Total energy for state  49:                  -515.82971716 au
    Multiplicity: Singlet
    Trans. Mom.:  0.0000 X   0.0000 Y   0.0000 Z
    Strength   :     0.0000000000
    D(    5) --> V(   47) amplitude =  1.0000

 Excited state  50: excitation energy (eV) =     530.7134
 Total energy for state  50:                  -515.81865796 au
    Multiplicity: Singlet
    Trans. Mom.: -0.0014 X  -0.0056 Y   0.0045 Z
    Strength   :     0.0006929411
    D(    5) --> V(   51) amplitude =  0.9674

 Excited state  51: excitation energy (eV) =     531.0074
 Total energy for state  51:                  -515.80785260 au
    Multiplicity: Singlet
    Trans. Mom.:  0.0034 X   0.0083 Y   0.0014 Z
    Strength   :     0.0010631188
    D(    5) --> V(   52) amplitude =  0.8970
    D(    5) --> V(   53) amplitude = -0.2476
    D(    5) --> V(   54) amplitude =  0.2996

 Excited state  52: excitation energy (eV) =     531.1503
 Total energy for state  52:                  -515.80260079 au
    Multiplicity: Singlet
    Trans. Mom.: -0.0037 X  -0.0070 Y   0.0164 Z
    Strength   :     0.0043078473
    D(    5) --> V(   52) amplitude =  0.3844
    D(    5) --> V(   53) amplitude =  0.7432
    D(    5) --> V(   54) amplitude = -0.4856

 Excited state  53: excitation energy (eV) =     531.3186
 Total energy for state  53:                  -515.79641598 au
    Multiplicity: Singlet
    Trans. Mom.: -0.0000 X  -0.0000 Y  -0.0000 Z
    Strength   :     0.0000000000
    D(    5) --> V(   50) amplitude =  1.0000

 Excited state  54: excitation energy (eV) =     531.4585
 Total energy for state  54:                  -515.79127516 au
    Multiplicity: Singlet
    Trans. Mom.: -0.0054 X  -0.0014 Y  -0.0054 Z
    Strength   :     0.0007772455
    D(    5) --> V(   53) amplitude =  0.5910
    D(    5) --> V(   54) amplitude =  0.7447
    D(    5) --> V(   55) amplitude =  0.2497

 Excited state  55: excitation energy (eV) =     531.7685
 Total energy for state  55:                  -515.77988241 au
    Multiplicity: Singlet
    Trans. Mom.: -0.0030 X  -0.0080 Y  -0.0024 Z
    Strength   :     0.0010219335
    D(    5) --> V(   54) amplitude = -0.2744
    D(    5) --> V(   55) amplitude =  0.9429

 Excited state  56: excitation energy (eV) =     532.3248
 Total energy for state  56:                  -515.75944017 au
    Multiplicity: Singlet
    Trans. Mom.: -0.0003 X  -0.0001 Y   0.0061 Z
    Strength   :     0.0004841181
    D(    5) --> V(   56) amplitude =  0.9697

 Excited state  57: excitation energy (eV) =     532.4828
 Total energy for state  57:                  -515.75363327 au
    Multiplicity: Singlet
    Trans. Mom.:  0.0062 X  -0.0068 Y   0.0016 Z
    Strength   :     0.0011418206
    D(    5) --> V(   58) amplitude =  0.8840
    D(    5) --> V(   60) amplitude = -0.3320

 Excited state  58: excitation energy (eV) =     532.7345
 Total energy for state  58:                  -515.74438530 au
    Multiplicity: Singlet
    Trans. Mom.:  0.0023 X  -0.0043 Y   0.0004 Z
    Strength   :     0.0003124829
    D(    5) --> V(   59) amplitude =  0.9347

 Excited state  59: excitation energy (eV) =     532.9564
 Total energy for state  59:                  -515.73623050 au
    Multiplicity: Singlet
    Trans. Mom.: -0.0057 X  -0.0023 Y   0.0011 Z
    Strength   :     0.0005026021
    D(    5) --> V(   58) amplitude =  0.3412
    D(    5) --> V(   60) amplitude =  0.9227

 Excited state  60: excitation energy (eV) =     533.1614
 Total energy for state  60:                  -515.72869615 au
    Multiplicity: Singlet
    Trans. Mom.: -0.0076 X  -0.0025 Y   0.0082 Z
    Strength   :     0.0017295918
    D(    5) --> V(   59) amplitude = -0.2427
    D(    5) --> V(   61) amplitude =  0.8676
    D(    5) --> V(   62) amplitude = -0.3783

 Excited state  61: excitation energy (eV) =     533.3028
 Total energy for state  61:                  -515.72350057 au
    Multiplicity: Singlet
    Trans. Mom.: -0.0000 X   0.0000 Y   0.0000 Z
    Strength   :     0.0000000000
    D(    5) --> V(   57) amplitude =  1.0000

 Excited state  62: excitation energy (eV) =     533.4254
 Total energy for state  62:                  -515.71899553 au
    Multiplicity: Singlet
    Trans. Mom.:  0.0061 X  -0.0038 Y  -0.0075 Z
    Strength   :     0.0014100937
    D(    5) --> V(   61) amplitude =  0.4082
    D(    5) --> V(   62) amplitude =  0.8864

 Excited state  63: excitation energy (eV) =     534.0084
 Total energy for state  63:                  -515.69757064 au
    Multiplicity: Singlet
    Trans. Mom.: -0.0041 X   0.0031 Y  -0.0010 Z
    Strength   :     0.0003585707
    D(    5) --> V(   64) amplitude =  0.9659

 Excited state  64: excitation energy (eV) =     534.1398
 Total energy for state  64:                  -515.69274045 au
    Multiplicity: Singlet
    Trans. Mom.:  0.0015 X  -0.0014 Y  -0.0022 Z
    Strength   :     0.0001201617
    D(    5) --> V(   65) amplitude =  0.9050
    D(    5) --> V(   66) amplitude =  0.3485

 Excited state  65: excitation energy (eV) =     534.3071
 Total energy for state  65:                  -515.68659307 au
    Multiplicity: Singlet
    Trans. Mom.:  0.0001 X   0.0027 Y   0.0023 Z
    Strength   :     0.0001643943
    D(    5) --> V(   65) amplitude = -0.3569
    D(    5) --> V(   66) amplitude =  0.8949

 Excited state  66: excitation energy (eV) =     534.4625
 Total energy for state  66:                  -515.68088034 au
    Multiplicity: Singlet
    Trans. Mom.:  0.0000 X   0.0000 Y   0.0000 Z
    Strength   :     0.0000000000
    D(    5) --> V(   63) amplitude =  1.0000

 Excited state  67: excitation energy (eV) =     534.7526
 Total energy for state  67:                  -515.67021970 au
    Multiplicity: Singlet
    Trans. Mom.: -0.0112 X  -0.0012 Y  -0.0017 Z
    Strength   :     0.0016905168
    D(    5) --> V(   66) amplitude =  0.2204
    D(    5) --> V(   67) amplitude =  0.9097
    D(    5) --> V(   68) amplitude =  0.3172

 Excited state  68: excitation energy (eV) =     535.2168
 Total energy for state  68:                  -515.65316199 au
    Multiplicity: Singlet
    Trans. Mom.: -0.0037 X   0.0053 Y   0.0005 Z
    Strength   :     0.0005455209
    D(    5) --> V(   67) amplitude = -0.3202
    D(    5) --> V(   68) amplitude =  0.9013
    D(    5) --> V(   69) amplitude = -0.2541

 Excited state  69: excitation energy (eV) =     535.4267
 Total energy for state  69:                  -515.64544729 au
    Multiplicity: Singlet
    Trans. Mom.: -0.0020 X  -0.0013 Y  -0.0032 Z
    Strength   :     0.0002066166
    D(    5) --> V(   68) amplitude =  0.2212
    D(    5) --> V(   69) amplitude =  0.9502

 Excited state  70: excitation energy (eV) =     536.3036
 Total energy for state  70:                  -515.61322121 au
    Multiplicity: Singlet
    Trans. Mom.:  0.0075 X  -0.0087 Y  -0.0040 Z
    Strength   :     0.0019454982
    D(    5) --> V(   70) amplitude =  0.8850
    D(    5) --> V(   71) amplitude = -0.4376

 Excited state  71: excitation energy (eV) =     536.4692
 Total energy for state  71:                  -515.60713730 au
    Multiplicity: Singlet
    Trans. Mom.:  0.0036 X   0.0043 Y   0.0008 Z
    Strength   :     0.0004250443
    D(    5) --> V(   70) amplitude =  0.4332
    D(    5) --> V(   71) amplitude =  0.8711

 Excited state  72: excitation energy (eV) =     536.7700
 Total energy for state  72:                  -515.59608158 au
    Multiplicity: Singlet
    Trans. Mom.:  0.0012 X   0.0092 Y   0.0047 Z
    Strength   :     0.0014330097
    D(    5) --> V(   73) amplitude =  0.9577

 Excited state  73: excitation energy (eV) =     537.1574
 Total energy for state  73:                  -515.58184536 au
    Multiplicity: Singlet
    Trans. Mom.: -0.0053 X  -0.0037 Y   0.0047 Z
    Strength   :     0.0008340118
    D(    5) --> V(   74) amplitude =  0.9718

 Excited state  74: excitation energy (eV) =     537.3251
 Total energy for state  74:                  -515.57568328 au
    Multiplicity: Singlet
    Trans. Mom.: -0.0128 X  -0.0015 Y   0.0011 Z
    Strength   :     0.0021994236
    D(    5) --> V(   75) amplitude =  0.9762

 Excited state  75: excitation energy (eV) =     537.4037
 Total energy for state  75:                  -515.57279594 au
    Multiplicity: Singlet
    Trans. Mom.: -0.0000 X   0.0000 Y   0.0000 Z
    Strength   :     0.0000000000
    D(    5) --> V(   72) amplitude =  1.0000

 Excited state  76: excitation energy (eV) =     537.7229
 Total energy for state  76:                  -515.56106259 au
    Multiplicity: Singlet
    Trans. Mom.: -0.0017 X   0.0041 Y   0.0046 Z
    Strength   :     0.0005313556
    D(    5) --> V(   76) amplitude =  0.9620

 Excited state  77: excitation energy (eV) =     537.8320
 Total energy for state  77:                  -515.55705549 au
    Multiplicity: Singlet
    Trans. Mom.:  0.0004 X  -0.0023 Y   0.0010 Z
    Strength   :     0.0000834582
    D(    5) --> V(   78) amplitude =  0.9521

 Excited state  78: excitation energy (eV) =     538.1617
 Total energy for state  78:                  -515.54493838 au
    Multiplicity: Singlet
    Trans. Mom.: -0.0027 X  -0.0013 Y  -0.0046 Z
    Strength   :     0.0003932741
    D(    5) --> V(   79) amplitude =  0.9682

 Excited state  79: excitation energy (eV) =     538.5578
 Total energy for state  79:                  -515.53038081 au
    Multiplicity: Singlet
    Trans. Mom.:  0.0000 X   0.0026 Y  -0.0095 Z
    Strength   :     0.0012840470
    D(    5) --> V(   80) amplitude =  0.9721

 Excited state  80: excitation energy (eV) =     538.6620
 Total energy for state  80:                  -515.52655400 au
    Multiplicity: Singlet
    Trans. Mom.: -0.0000 X   0.0000 Y  -0.0000 Z
    Strength   :     0.0000000000
    D(    5) --> V(   77) amplitude =  1.0000

 Excited state  81: excitation energy (eV) =     538.7697
 Total energy for state  81:                  -515.52259457 au
    Multiplicity: Singlet
    Trans. Mom.:  0.0016 X   0.0048 Y   0.0019 Z
    Strength   :     0.0003849403
    D(    5) --> V(   81) amplitude =  0.9709

 Excited state  82: excitation energy (eV) =     539.0214
 Total energy for state  82:                  -515.51334502 au
    Multiplicity: Singlet
    Trans. Mom.:  0.0047 X  -0.0008 Y   0.0013 Z
    Strength   :     0.0003202129
    D(    5) --> V(   82) amplitude =  0.9861

 Excited state  83: excitation energy (eV) =     539.5746
 Total energy for state  83:                  -515.49301626 au
    Multiplicity: Singlet
    Trans. Mom.: -0.0027 X   0.0011 Y  -0.0054 Z
    Strength   :     0.0004964083
    D(    5) --> V(   84) amplitude =  0.9487
    D(    5) --> V(   86) amplitude =  0.2546

 Excited state  84: excitation energy (eV) =     539.7826
 Total energy for state  84:                  -515.48537002 au
    Multiplicity: Singlet
    Trans. Mom.: -0.0068 X  -0.0005 Y   0.0024 Z
    Strength   :     0.0006893305
    D(    5) --> V(   85) amplitude =  0.9863

 Excited state  85: excitation energy (eV) =     540.0732
 Total energy for state  85:                  -515.47469045 au
    Multiplicity: Singlet
    Trans. Mom.:  0.0014 X  -0.0011 Y  -0.0034 Z
    Strength   :     0.0001957829
    D(    5) --> V(   84) amplitude = -0.2588
    D(    5) --> V(   86) amplitude =  0.9388

 Excited state  86: excitation energy (eV) =     540.2422
 Total energy for state  86:                  -515.46848178 au
    Multiplicity: Singlet
    Trans. Mom.:  0.0000 X  -0.0000 Y   0.0000 Z
    Strength   :     0.0000000000
    D(    5) --> V(   83) amplitude =  1.0000

 Excited state  87: excitation energy (eV) =     540.4143
 Total energy for state  87:                  -515.46215557 au
    Multiplicity: Singlet
    Trans. Mom.: -0.0070 X  -0.0063 Y   0.0028 Z
    Strength   :     0.0012724197
    D(    5) --> V(   87) amplitude =  0.9576

 Excited state  88: excitation energy (eV) =     540.7255
 Total energy for state  88:                  -515.45072147 au
    Multiplicity: Singlet
    Trans. Mom.:  0.0009 X   0.0085 Y   0.0020 Z
    Strength   :     0.0010128324
    D(    5) --> V(   88) amplitude =  0.8737
    D(    5) --> V(   89) amplitude = -0.2411
    D(    5) --> V(   90) amplitude = -0.3613

 Excited state  89: excitation energy (eV) =     540.7900
 Total energy for state  89:                  -515.44834936 au
    Multiplicity: Singlet
    Trans. Mom.: -0.0021 X   0.0004 Y   0.0021 Z
    Strength   :     0.0001173209
    D(    5) --> V(   88) amplitude =  0.3825
    D(    5) --> V(   89) amplitude =  0.7881
    D(    5) --> V(   90) amplitude =  0.4291

 Excited state  90: excitation energy (eV) =     540.9870
 Total energy for state  90:                  -515.44111220 au
    Multiplicity: Singlet
    Trans. Mom.: -0.0014 X   0.0024 Y   0.0009 Z
    Strength   :     0.0001123074
    D(    5) --> V(   89) amplitude = -0.5469
    D(    5) --> V(   90) amplitude =  0.8095

 Excited state  91: excitation energy (eV) =     541.4039
 Total energy for state  91:                  -515.42578849 au
    Multiplicity: Singlet
    Trans. Mom.: -0.0040 X   0.0007 Y  -0.0037 Z
    Strength   :     0.0004074512
    D(    5) --> V(   92) amplitude =  0.9827

 Excited state  92: excitation energy (eV) =     541.5864
 Total energy for state  92:                  -515.41908153 au
    Multiplicity: Singlet
    Trans. Mom.: -0.0080 X  -0.0048 Y   0.0026 Z
    Strength   :     0.0012389461
    D(    5) --> V(   93) amplitude =  0.9022
    D(    5) --> V(   95) amplitude =  0.3423

 Excited state  93: excitation energy (eV) =     541.7837
 Total energy for state  93:                  -515.41183051 au
    Multiplicity: Singlet
    Trans. Mom.:  0.0113 X   0.0101 Y   0.0002 Z
    Strength   :     0.0030504574
    D(    5) --> V(   93) amplitude =  0.3169
    D(    5) --> V(   95) amplitude = -0.5646
    D(    5) --> V(   96) amplitude =  0.7130

 Excited state  94: excitation energy (eV) =     541.9663
 Total energy for state  94:                  -515.40512007 au
    Multiplicity: Singlet
    Trans. Mom.:  0.0025 X   0.0093 Y   0.0028 Z
    Strength   :     0.0013274880
    D(    5) --> V(   93) amplitude = -0.2152
    D(    5) --> V(   95) amplitude =  0.7038
    D(    5) --> V(   96) amplitude =  0.6033
    D(    5) --> V(   97) amplitude =  0.2277

 Excited state  95: excitation energy (eV) =     542.0931
 Total energy for state  95:                  -515.40046031 au
    Multiplicity: Singlet
    Trans. Mom.: -0.0000 X   0.0000 Y  -0.0000 Z
    Strength   :     0.0000000000
    D(    5) --> V(   91) amplitude =  1.0000

 Excited state  96: excitation energy (eV) =     542.1376
 Total energy for state  96:                  -515.39882527 au
    Multiplicity: Singlet
    Trans. Mom.:  0.0054 X  -0.0060 Y   0.0056 Z
    Strength   :     0.0012730344
    D(    5) --> V(   97) amplitude = -0.3063
    D(    5) --> V(   98) amplitude =  0.8730
    D(    5) --> V(   99) amplitude = -0.2189

 Excited state  97: excitation energy (eV) =     542.3318
 Total energy for state  97:                  -515.39168825 au
    Multiplicity: Singlet
    Trans. Mom.:  0.0051 X   0.0003 Y  -0.0013 Z
    Strength   :     0.0003707406
    D(    5) --> V(   96) amplitude = -0.2433
    D(    5) --> V(   97) amplitude =  0.8568
    D(    5) --> V(   98) amplitude =  0.3854

 Excited state  98: excitation energy (eV) =     542.6102
 Total energy for state  98:                  -515.38145714 au
    Multiplicity: Singlet
    Trans. Mom.: -0.0000 X   0.0000 Y   0.0000 Z
    Strength   :     0.0000000000
    D(    5) --> V(   94) amplitude =  1.0000

 Excited state  99: excitation energy (eV) =     542.6569
 Total energy for state  99:                  -515.37974210 au
    Multiplicity: Singlet
    Trans. Mom.: -0.0006 X  -0.0005 Y   0.0060 Z
    Strength   :     0.0004828280
    D(    5) --> V(   97) amplitude = -0.2919
    D(    5) --> V(   99) amplitude =  0.8293
    D(    5) --> V(  100) amplitude =  0.3744

 Excited state 100: excitation energy (eV) =     542.8780
 Total energy for state 100:                  -515.37161750 au
    Multiplicity: Singlet
    Trans. Mom.:  0.0029 X  -0.0011 Y   0.0024 Z
    Strength   :     0.0002028202
    D(    5) --> V(   99) amplitude = -0.3780
    D(    5) --> V(  100) amplitude =  0.9057

 Excited state 101: excitation energy (eV) =     542.9028
 Total energy for state 101:                  -515.37070426 au
    Multiplicity: Singlet
    Trans. Mom.: -0.0077 X  -0.0051 Y  -0.0121 Z
    Strength   :     0.0030666321
    D(    5) --> V(  101) amplitude =  0.9545

 Excited state 102: excitation energy (eV) =     543.1898
 Total energy for state 102:                  -515.36015781 au
    Multiplicity: Singlet
    Trans. Mom.: -0.0169 X   0.0090 Y   0.0028 Z
    Strength   :     0.0049854227
    D(    5) --> V(  102) amplitude =  0.9643

 Excited state 103: excitation energy (eV) =     543.5402
 Total energy for state 103:                  -515.34728060 au
    Multiplicity: Singlet
    Trans. Mom.:  0.0017 X   0.0031 Y  -0.0032 Z
    Strength   :     0.0003053014
    D(    5) --> V(  103) amplitude =  0.9482

 Excited state 104: excitation energy (eV) =     543.7621
 Total energy for state 104:                  -515.33912560 au
    Multiplicity: Singlet
    Trans. Mom.: -0.0095 X  -0.0092 Y   0.0065 Z
    Strength   :     0.0028787104
    D(    5) --> V(  104) amplitude =  0.8222
    D(    5) --> V(  106) amplitude = -0.4844

 Excited state 105: excitation energy (eV) =     544.0220
 Total energy for state 105:                  -515.32957583 au
    Multiplicity: Singlet
    Trans. Mom.:  0.0068 X  -0.0096 Y   0.0067 Z
    Strength   :     0.0024383104
    D(    5) --> V(  104) amplitude =  0.4328
    D(    5) --> V(  105) amplitude = -0.3558
    D(    5) --> V(  106) amplitude =  0.7709
    D(    5) --> V(  107) amplitude = -0.2192

 Excited state 106: excitation energy (eV) =     544.2004
 Total energy for state 106:                  -515.32302098 au
    Multiplicity: Singlet
    Trans. Mom.:  0.0019 X   0.0040 Y  -0.0045 Z
    Strength   :     0.0005320955
    D(    5) --> V(  105) amplitude =  0.9204
    D(    5) --> V(  106) amplitude =  0.2944

 Excited state 107: excitation energy (eV) =     544.8392
 Total energy for state 107:                  -515.29954482 au
    Multiplicity: Singlet
    Trans. Mom.: -0.0077 X   0.0124 Y   0.0025 Z
    Strength   :     0.0029485405
    D(    5) --> V(  107) amplitude =  0.9169
    D(    5) --> V(  108) amplitude =  0.2841

 Excited state 108: excitation energy (eV) =     545.2558
 Total energy for state 108:                  -515.28423349 au
    Multiplicity: Singlet
    Trans. Mom.: -0.0016 X   0.0028 Y   0.0090 Z
    Strength   :     0.0012093736
    D(    5) --> V(  107) amplitude = -0.2898
    D(    5) --> V(  108) amplitude =  0.9359

 Excited state 109: excitation energy (eV) =     545.3504
 Total energy for state 109:                  -515.28075822 au
    Multiplicity: Singlet
    Trans. Mom.: -0.0014 X   0.0048 Y  -0.0107 Z
    Strength   :     0.0018730999
    D(    5) --> V(  109) amplitude =  0.9795

 Excited state 110: excitation energy (eV) =     546.2281
 Total energy for state 110:                  -515.24850445 au
    Multiplicity: Singlet
    Trans. Mom.: -0.0035 X   0.0040 Y   0.0030 Z
    Strength   :     0.0004909638
    D(    5) --> V(  111) amplitude =  0.9692

 Excited state 111: excitation energy (eV) =     546.4298
 Total energy for state 111:                  -515.24109198 au
    Multiplicity: Singlet
    Trans. Mom.: -0.0099 X   0.0071 Y   0.0064 Z
    Strength   :     0.0025267320
    D(    5) --> V(  112) amplitude =  0.9829

 Excited state 112: excitation energy (eV) =     546.7993
 Total energy for state 112:                  -515.22751223 au
    Multiplicity: Singlet
    Trans. Mom.:  0.0052 X  -0.0031 Y  -0.0002 Z
    Strength   :     0.0004892694
    D(    5) --> V(  114) amplitude =  0.9772

 Excited state 113: excitation energy (eV) =     546.9338
 Total energy for state 113:                  -515.22256891 au
    Multiplicity: Singlet
    Trans. Mom.: -0.0000 X  -0.0000 Y  -0.0000 Z
    Strength   :     0.0000000000
    D(    5) --> V(  110) amplitude =  1.0000

 Excited state 114: excitation energy (eV) =     547.2674
 Total energy for state 114:                  -515.21030888 au
    Multiplicity: Singlet
    Trans. Mom.: -0.0078 X   0.0027 Y  -0.0037 Z
    Strength   :     0.0011047836
    D(    5) --> V(  115) amplitude =  0.6387
    D(    5) --> V(  116) amplitude =  0.7446

 Excited state 115: excitation energy (eV) =     547.3662
 Total energy for state 115:                  -515.20667961 au
    Multiplicity: Singlet
    Trans. Mom.: -0.0056 X  -0.0020 Y  -0.0057 Z
    Strength   :     0.0009133433
    D(    5) --> V(  115) amplitude =  0.7349
    D(    5) --> V(  116) amplitude = -0.6315

 Excited state 116: excitation energy (eV) =     547.5177
 Total energy for state 116:                  -515.20111143 au
    Multiplicity: Singlet
    Trans. Mom.: -0.0000 X   0.0000 Y   0.0000 Z
    Strength   :     0.0000000000
    D(    5) --> V(  113) amplitude =  1.0000

 Excited state 117: excitation energy (eV) =     547.7503
 Total energy for state 117:                  -515.19256328 au
    Multiplicity: Singlet
    Trans. Mom.:  0.0008 X   0.0050 Y   0.0106 Z
    Strength   :     0.0018574250
    D(    5) --> V(  117) amplitude =  0.9575

 Excited state 118: excitation energy (eV) =     548.1047
 Total energy for state 118:                  -515.17953974 au
    Multiplicity: Singlet
    Trans. Mom.: -0.0017 X  -0.0027 Y   0.0045 Z
    Strength   :     0.0004074491
    D(    5) --> V(  119) amplitude =  0.9358

 Excited state 119: excitation energy (eV) =     548.2476
 Total energy for state 119:                  -515.17428915 au
    Multiplicity: Singlet
    Trans. Mom.:  0.0055 X   0.0109 Y  -0.0144 Z
    Strength   :     0.0047934664
    D(    5) --> V(  120) amplitude =  0.7250
    D(    5) --> V(  121) amplitude = -0.6212

 Excited state 120: excitation energy (eV) =     548.4388
 Total energy for state 120:                  -515.16726082 au
    Multiplicity: Singlet
    Trans. Mom.: -0.0078 X  -0.0111 Y  -0.0105 Z
    Strength   :     0.0039547283
    D(    5) --> V(  120) amplitude =  0.6460
    D(    5) --> V(  121) amplitude =  0.5904
    D(    5) --> V(  123) amplitude =  0.4066

 Excited state 121: excitation energy (eV) =     548.6240
 Total energy for state 121:                  -515.16045693 au
    Multiplicity: Singlet
    Trans. Mom.: -0.0123 X   0.0120 Y  -0.0106 Z
    Strength   :     0.0054920119
    D(    5) --> V(  121) amplitude = -0.3830
    D(    5) --> V(  123) amplitude =  0.8330
    D(    5) --> V(  124) amplitude = -0.2364

 Excited state 122: excitation energy (eV) =     549.0086
 Total energy for state 122:                  -515.14632366 au
    Multiplicity: Singlet
    Trans. Mom.:  0.0000 X   0.0000 Y   0.0000 Z
    Strength   :     0.0000000000
    D(    5) --> V(  118) amplitude =  1.0000

 Excited state 123: excitation energy (eV) =     549.0963
 Total energy for state 123:                  -515.14309997 au
    Multiplicity: Singlet
    Trans. Mom.:  0.0099 X  -0.0022 Y  -0.0046 Z
    Strength   :     0.0016673890
    D(    5) --> V(  124) amplitude =  0.9302

 Excited state 124: excitation energy (eV) =     549.2618
 Total energy for state 124:                  -515.13701530 au
    Multiplicity: Singlet
    Trans. Mom.: -0.0016 X  -0.0006 Y  -0.0145 Z
    Strength   :     0.0028592737
    D(    5) --> V(  125) amplitude =  0.9329

 Excited state 125: excitation energy (eV) =     549.6209
 Total energy for state 125:                  -515.12381890 au
    Multiplicity: Singlet
    Trans. Mom.:  0.0110 X   0.0153 Y  -0.0011 Z
    Strength   :     0.0047744595
    D(    5) --> V(  126) amplitude = -0.4974
    D(    5) --> V(  127) amplitude =  0.7448
    D(    5) --> V(  128) amplitude = -0.2764

 Excited state 126: excitation energy (eV) =     549.6297
 Total energy for state 126:                  -515.12349872 au
    Multiplicity: Singlet
    Trans. Mom.: -0.0000 X  -0.0000 Y  -0.0000 Z
    Strength   :     0.0000000000
    D(    5) --> V(  122) amplitude =  1.0000

 Excited state 127: excitation energy (eV) =     549.8706
 Total energy for state 127:                  -515.11464486 au
    Multiplicity: Singlet
    Trans. Mom.:  0.0052 X   0.0024 Y   0.0017 Z
    Strength   :     0.0004855656
    D(    5) --> V(  126) amplitude =  0.8252
    D(    5) --> V(  127) amplitude =  0.4676

 Excited state 128: excitation energy (eV) =     549.9857
 Total energy for state 128:                  -515.11041469 au
    Multiplicity: Singlet
    Trans. Mom.:  0.0105 X  -0.0080 Y  -0.0127 Z
    Strength   :     0.0045430150
    D(    5) --> V(  128) amplitude =  0.8660
    D(    5) --> V(  130) amplitude =  0.3677

 Excited state 129: excitation energy (eV) =     550.2530
 Total energy for state 129:                  -515.10059230 au
    Multiplicity: Singlet
    Trans. Mom.:  0.0113 X   0.0066 Y   0.0003 Z
    Strength   :     0.0023280472
    D(    5) --> V(  127) amplitude = -0.3390
    D(    5) --> V(  128) amplitude = -0.2916
    D(    5) --> V(  129) amplitude =  0.5532
    D(    5) --> V(  130) amplitude =  0.6479

 Excited state 130: excitation energy (eV) =     550.4802
 Total energy for state 130:                  -515.09224180 au
    Multiplicity: Singlet
    Trans. Mom.: -0.0031 X   0.0054 Y  -0.0026 Z
    Strength   :     0.0006198893
    D(    5) --> V(  129) amplitude =  0.7925
    D(    5) --> V(  130) amplitude = -0.4784
    D(    5) --> V(  131) amplitude = -0.2340

 Excited state 131: excitation energy (eV) =     550.6590
 Total energy for state 131:                  -515.08567272 au
    Multiplicity: Singlet
    Trans. Mom.:  0.0001 X  -0.0117 Y  -0.0045 Z
    Strength   :     0.0021185626
    D(    5) --> V(  131) amplitude =  0.9203
    D(    5) --> V(  133) amplitude =  0.2391

 Excited state 132: excitation energy (eV) =     551.0948
 Total energy for state 132:                  -515.06965718 au
    Multiplicity: Singlet
    Trans. Mom.:  0.0020 X  -0.0010 Y  -0.0103 Z
    Strength   :     0.0015108782
    D(    5) --> V(  130) amplitude =  0.2361
    D(    5) --> V(  131) amplitude = -0.2186
    D(    5) --> V(  133) amplitude =  0.9173

 Excited state 133: excitation energy (eV) =     551.3093
 Total energy for state 133:                  -515.06177223 au
    Multiplicity: Singlet
    Trans. Mom.:  0.0154 X  -0.0084 Y  -0.0030 Z
    Strength   :     0.0042596219
    D(    5) --> V(  134) amplitude =  0.7316
    D(    5) --> V(  135) amplitude =  0.4877
    D(    5) --> V(  136) amplitude = -0.2565
    D(    5) --> V(  137) amplitude = -0.2541

 Excited state 134: excitation energy (eV) =     551.4622
 Total energy for state 134:                  -515.05615380 au
    Multiplicity: Singlet
    Trans. Mom.: -0.0085 X   0.0110 Y   0.0007 Z
    Strength   :     0.0026225243
    D(    5) --> V(  134) amplitude =  0.5994
    D(    5) --> V(  135) amplitude = -0.4183
    D(    5) --> V(  136) amplitude =  0.2935
    D(    5) --> V(  137) amplitude =  0.5016
    D(    5) --> V(  138) amplitude = -0.2963

 Excited state 135: excitation energy (eV) =     551.6663
 Total energy for state 135:                  -515.04865355 au
    Multiplicity: Singlet
    Trans. Mom.:  0.0019 X   0.0075 Y  -0.0039 Z
    Strength   :     0.0010110024
    D(    5) --> V(  135) amplitude =  0.6948
    D(    5) --> V(  136) amplitude =  0.5838
    D(    5) --> V(  137) amplitude =  0.3092

 Excited state 136: excitation energy (eV) =     551.8301
 Total energy for state 136:                  -515.04263286 au
    Multiplicity: Singlet
    Trans. Mom.:  0.0000 X  -0.0000 Y  -0.0000 Z
    Strength   :     0.0000000000
    D(    5) --> V(  132) amplitude =  1.0000

 Excited state 137: excitation energy (eV) =     552.1077
 Total energy for state 137:                  -515.03243261 au
    Multiplicity: Singlet
    Trans. Mom.:  0.0025 X   0.0029 Y  -0.0102 Z
    Strength   :     0.0016084226
    D(    5) --> V(  135) amplitude = -0.2597
    D(    5) --> V(  136) amplitude =  0.6119
    D(    5) --> V(  137) amplitude = -0.4223
    D(    5) --> V(  138) amplitude =  0.4371
    D(    5) --> V(  139) amplitude =  0.3727

 Excited state 138: excitation energy (eV) =     552.3323
 Total energy for state 138:                  -515.02417876 au
    Multiplicity: Singlet
    Trans. Mom.:  0.0023 X  -0.0003 Y  -0.0010 Z
    Strength   :     0.0000867029
    D(    5) --> V(  137) amplitude =  0.5272
    D(    5) --> V(  138) amplitude =  0.7983

 Excited state 139: excitation energy (eV) =     552.4003
 Total energy for state 139:                  -515.02167774 au
    Multiplicity: Singlet
    Trans. Mom.: -0.0025 X  -0.0013 Y  -0.0049 Z
    Strength   :     0.0004346209
    D(    5) --> V(  136) amplitude = -0.3186
    D(    5) --> V(  137) amplitude =  0.3019
    D(    5) --> V(  139) amplitude =  0.8622

 Excited state 140: excitation energy (eV) =     552.9163
 Total energy for state 140:                  -515.00271842 au
    Multiplicity: Singlet
    Trans. Mom.:  0.0043 X   0.0082 Y   0.0073 Z
    Strength   :     0.0018973255
    D(    5) --> V(  139) amplitude =  0.2282
    D(    5) --> V(  140) amplitude =  0.9545

 Excited state 141: excitation energy (eV) =     553.4941
 Total energy for state 141:                  -514.98148252 au
    Multiplicity: Singlet
    Trans. Mom.:  0.0082 X   0.0004 Y   0.0078 Z
    Strength   :     0.0017468875
    D(    5) --> V(  142) amplitude =  0.9649

 Excited state 142: excitation energy (eV) =     553.7971
 Total energy for state 142:                  -514.97034853 au
    Multiplicity: Singlet
    Trans. Mom.: -0.0033 X  -0.0065 Y  -0.0056 Z
    Strength   :     0.0011480153
    D(    5) --> V(  143) amplitude =  0.9691

 Excited state 143: excitation energy (eV) =     554.2016
 Total energy for state 143:                  -514.95548153 au
    Multiplicity: Singlet
    Trans. Mom.: -0.0000 X   0.0000 Y   0.0000 Z
    Strength   :     0.0000000000
    D(    5) --> V(  141) amplitude =  1.0000

 Excited state 144: excitation energy (eV) =     554.5554
 Total energy for state 144:                  -514.94248162 au
    Multiplicity: Singlet
    Trans. Mom.:  0.0085 X   0.0004 Y   0.0099 Z
    Strength   :     0.0023312285
    D(    5) --> V(  144) amplitude =  0.9592

 Excited state 145: excitation energy (eV) =     554.7022
 Total energy for state 145:                  -514.93708677 au
    Multiplicity: Singlet
    Trans. Mom.: -0.0047 X  -0.0113 Y   0.0067 Z
    Strength   :     0.0026664832
    D(    5) --> V(  145) amplitude =  0.9711

 Excited state 146: excitation energy (eV) =     554.9299
 Total energy for state 146:                  -514.92871645 au
    Multiplicity: Singlet
    Trans. Mom.: -0.0040 X  -0.0086 Y   0.0059 Z
    Strength   :     0.0016818182
    D(    5) --> V(  146) amplitude =  0.9317
    D(    5) --> V(  147) amplitude = -0.2641

 Excited state 147: excitation energy (eV) =     555.3212
 Total energy for state 147:                  -514.91433706 au
    Multiplicity: Singlet
    Trans. Mom.: -0.0027 X  -0.0107 Y   0.0118 Z
    Strength   :     0.0035507283
    D(    5) --> V(  147) amplitude =  0.3303
    D(    5) --> V(  148) amplitude =  0.8710
    D(    5) --> V(  149) amplitude = -0.2974

 Excited state 148: excitation energy (eV) =     555.4691
 Total energy for state 148:                  -514.90890381 au
    Multiplicity: Singlet
    Trans. Mom.:  0.0011 X   0.0004 Y  -0.0073 Z
    Strength   :     0.0007377813
    D(    5) --> V(  146) amplitude =  0.2979
    D(    5) --> V(  147) amplitude =  0.8908
    D(    5) --> V(  148) amplitude = -0.2977

 Excited state 149: excitation energy (eV) =     555.8813
 Total energy for state 149:                  -514.89375412 au
    Multiplicity: Singlet
    Trans. Mom.:  0.0014 X  -0.0013 Y  -0.0010 Z
    Strength   :     0.0000618487
    D(    5) --> V(  148) amplitude =  0.3018
    D(    5) --> V(  149) amplitude =  0.9416

 Excited state 150: excitation energy (eV) =     556.3736
 Total energy for state 150:                  -514.87566307 au
    Multiplicity: Singlet
    Trans. Mom.:  0.0046 X   0.0072 Y   0.0030 Z
    Strength   :     0.0011285537
    D(    5) --> V(  151) amplitude = -0.9510
    D(    5) --> V(  152) amplitude =  0.2708

 ---------------------------------------------------
  SETman timing summary (seconds)
  CPU time            283958.46s
  System time              0.01s
  Wall time           284032.77s
================================================================================
                             Excited State Analysis
================================================================================

  Ground State (Reference) :
  -------------------------
    NOs
      Occupation of frontier NOs:
         0.0000   0.0000   2.0000   2.0000
      Number of electrons: 70.000000
      Number of unpaired electrons: n_u =  0.00000, n_u,nl =  0.00000
    
    Mulliken Population Analysis (State DM)
    Atom      Charge (e)
    --------------------
     1 O       -0.774751
     2 O       -0.557859
     3 H        0.291735
     4 H        0.298509
     5 H        0.355300
     6 H        0.404816
     7 O       -0.576590
     8 H        0.283094
     9 H        0.293495
    10 O       -0.656714
    11 H        0.290403
    12 H        0.362529
    13 O       -0.681561
    14 H        0.278471
    15 H        0.375025
    16 O       -0.666563
    17 H        0.335122
    18 H        0.362890
    19 O       -0.623515
    20 H        0.259934
    21 H        0.346229
    --------------------
    Sum:        0.000000
    
    Multipole moment analysis of the density matrix
      Molecular charge:                      -0.000000
      Number of electrons:                   70.000000
        Center of electronic charge [Ang]: [ -0.001564,   0.001558,   0.002942]
      Total nuclear charge:                  70.000000
        Center of nuclear charge [Ang]:    [ -0.019297,   0.008396,   0.011921]
      Dipole moment [D]:                     7.067544
        Cartesian components [D]:          [ -5.962333,   2.299036,   3.019139]
      RMS size of the density [Ang]:         8.024310
        Cartesian components [Ang]:        [  1.824294,   7.695911,   1.354427]
    

  ----------------------------------------------------------------------------
                  Analysis of Unrelaxed Density Matrices
  ----------------------------------------------------------------------------

  Singlet 1 :
  -------------------------
    NOs
      Occupation of frontier NOs:
         0.0000   1.0000   1.0000   2.0000
      Number of electrons: 70.000000
      Number of unpaired electrons: n_u =  2.00000, n_u,nl =  2.00000
      NO participation ratio (PR_NO):  2.000000
    
    NDOs
      Leading detachment eigenvalues:
        -1.0000  -0.0000
      Leading attachment eigenvalues:
         1.0000   0.0000
      Number of detached / attached electrons: p_D =  1.0000, p_A =  1.0000
      Number of involved orbitals: PR_D =  1.000000, PR_A =  1.000000
    
    Mulliken Population Analysis (State/Difference DM)
    Atom      Charge (e)              h+              e-           Del q
    --------------------------------------------------------------------
     1 O        0.169778        0.991057       -0.046529        0.944528
     2 O       -0.579893        0.000003       -0.022037       -0.022034
     3 H        0.197487        0.000000       -0.094248       -0.094248
     4 H        0.253588        0.000000       -0.044922       -0.044922
     5 H        0.249661        0.004240       -0.109879       -0.105639
     6 H        0.553599        0.004668        0.144115        0.148783
     7 O       -0.576590        0.000000       -0.000000       -0.000000
     8 H        0.283094        0.000000       -0.000000        0.000000
     9 H        0.293495        0.000000       -0.000000        0.000000
    10 O       -0.651906        0.000002        0.004806        0.004808
    11 H        0.287133       -0.000000       -0.003269       -0.003269
    12 H        0.343438        0.000006       -0.019097       -0.019092
    13 O       -0.681165        0.000000        0.000396        0.000396
    14 H        0.270852       -0.000000       -0.007620       -0.007620
    15 H        0.349279        0.000018       -0.025763       -0.025745
    16 O       -0.742716        0.000006       -0.076159       -0.076153
    17 H       -0.026411        0.000000       -0.361534       -0.361534
    18 H        0.023418        0.000000       -0.339472       -0.339472
    19 O       -0.664766       -0.000000       -0.041251       -0.041251
    20 H        0.146264        0.000000       -0.113670       -0.113670
    21 H        0.502361       -0.000000        0.156132        0.156132
    --------------------------------------------------------------------
    Sum:        0.000000        1.000000       -1.000000       -0.000000
    
    Multipole moment analysis of the density matrix
      Molecular charge:                      0.000000
      Number of electrons:                   70.000000
        Center of electronic charge [Ang]: [ -0.040601,   0.007413,   0.014419]
      Total nuclear charge:                  70.000000
        Center of nuclear charge [Ang]:    [ -0.019297,   0.008396,   0.011921]
      Dipole moment [D]:                     7.219455
        Cartesian components [D]:          [  7.162826,   0.330535,  -0.839763]
      RMS size of the density [Ang]:         8.036356
        Cartesian components [Ang]:        [  1.843648,   7.701254,   1.369185]
    
    Exciton analysis of the difference density matrix
      <r_h> [Ang]:                  [  0.867221,   3.824576,   0.194880]
      <r_e> [Ang]:                  [ -1.865363,   4.234406,   0.998282]
      |<r_e - r_h>| [Ang]:            2.877574
      Hole size [Ang]:                0.122783
        Cartesian components [Ang]: [  0.070891,   0.070897,   0.070878]
      Electron size [Ang]:            2.588716
        Cartesian components [Ang]: [  1.536901,   1.570172,   1.368923]

  Singlet 2 :
  -------------------------
    NOs
      Occupation of frontier NOs:
         0.0000   1.0000   1.0000   2.0000
      Number of electrons: 70.000000
      Number of unpaired electrons: n_u =  2.00000, n_u,nl =  2.00000
      NO participation ratio (PR_NO):  2.000000
    
    NDOs
      Leading detachment eigenvalues:
        -1.0000  -0.0000
      Leading attachment eigenvalues:
         1.0000   0.0000
      Number of detached / attached electrons: p_D =  1.0000, p_A =  1.0000
      Number of involved orbitals: PR_D =  1.000000, PR_A =  1.000000
    
    Mulliken Population Analysis (State/Difference DM)
    Atom      Charge (e)              h+              e-           Del q
    --------------------------------------------------------------------
     1 O        0.191419        0.991057       -0.024887        0.966170
     2 O       -0.498118        0.000003        0.059738        0.059741
     3 H        0.109394        0.000000       -0.182342       -0.182342
     4 H       -0.171919        0.000000       -0.470428       -0.470428
     5 H        0.343944        0.004240       -0.015596       -0.011356
     6 H        0.581255        0.004668        0.171771        0.176439
     7 O       -0.576590        0.000000       -0.000000        0.000000
     8 H        0.283094        0.000000       -0.000000        0.000000
     9 H        0.293495        0.000000       -0.000000        0.000000
    10 O       -0.627419        0.000002        0.029293        0.029295
    11 H        0.218705       -0.000000       -0.071697       -0.071697
    12 H        0.309686        0.000006       -0.052849       -0.052843
    13 O       -0.653983        0.000000        0.027577        0.027578
    14 H        0.215444       -0.000000       -0.063027       -0.063027
    15 H        0.290975        0.000018       -0.084068       -0.084050
    16 O       -0.652252        0.000006        0.014306        0.014311
    17 H        0.029668        0.000000       -0.305455       -0.305454
    18 H        0.373928        0.000000        0.011038        0.011038
    19 O       -0.613665       -0.000000        0.009851        0.009851
    20 H        0.168907        0.000000       -0.091028       -0.091028
    21 H        0.384031       -0.000000        0.037802        0.037802
    --------------------------------------------------------------------
    Sum:        0.000000        1.000000       -1.000000        0.000000
    
    Multipole moment analysis of the density matrix
      Molecular charge:                      0.000000
      Number of electrons:                   70.000000
        Center of electronic charge [Ang]: [ -0.027881,  -0.017234,   0.006369]
      Total nuclear charge:                  70.000000
        Center of nuclear charge [Ang]:    [ -0.019297,   0.008396,   0.011921]
      Dipole moment [D]:                     9.277634
        Cartesian components [D]:          [  2.886125,   8.617399,   1.866871]
      RMS size of the density [Ang]:         8.028234
        Cartesian components [Ang]:        [  1.843708,   7.693628,   1.364320]
    
    Exciton analysis of the difference density matrix
      <r_h> [Ang]:                  [  0.867221,   3.824576,   0.194880]
      <r_e> [Ang]:                  [ -0.974978,   2.509128,   0.434776]
      |<r_e - r_h>| [Ang]:            2.276323
      Hole size [Ang]:                0.122783
        Cartesian components [Ang]: [  0.070891,   0.070897,   0.070878]
      Electron size [Ang]:            3.533133
        Cartesian components [Ang]: [  2.201297,   2.428656,   1.318691]

  Singlet 3 :
  -------------------------
    NOs
      Occupation of frontier NOs:
         0.0000   1.0000   1.0000   2.0000
      Number of electrons: 70.000000
      Number of unpaired electrons: n_u =  2.00000, n_u,nl =  2.00000
      NO participation ratio (PR_NO):  2.000000
    
    NDOs
      Leading detachment eigenvalues:
        -1.0000  -0.0000
      Leading attachment eigenvalues:
         1.0000   0.0000
      Number of detached / attached electrons: p_D =  1.0000, p_A =  1.0000
      Number of involved orbitals: PR_D =  1.000000, PR_A =  1.000000
    
    Mulliken Population Analysis (State/Difference DM)
    Atom      Charge (e)              h+              e-           Del q
    --------------------------------------------------------------------
     1 O        0.278550        0.991057        0.062243        1.053300
     2 O       -0.446679        0.000003        0.111177        0.111180
     3 H        0.043492        0.000000       -0.248244       -0.248244
     4 H        0.166330        0.000000       -0.132179       -0.132179
     5 H        0.227070        0.004240       -0.132471       -0.128230
     6 H        0.356052        0.004668       -0.053432       -0.048764
     7 O       -0.576590        0.000000       -0.000000       -0.000000
     8 H        0.283094        0.000000       -0.000000       -0.000000
     9 H        0.293495        0.000000       -0.000000       -0.000000
    10 O       -0.674650        0.000002       -0.017937       -0.017935
    11 H        0.250090       -0.000000       -0.040312       -0.040312
    12 H        0.378585        0.000006        0.016050        0.016056
    13 O       -0.657637        0.000000        0.023923        0.023924
    14 H       -0.032282       -0.000000       -0.310753       -0.310753
    15 H        0.417659        0.000018        0.042617        0.042635
    16 O       -0.637012        0.000006        0.029545        0.029551
    17 H        0.322859        0.000000       -0.012263       -0.012263
    18 H        0.229147        0.000000       -0.133743       -0.133742
    19 O       -0.568153       -0.000000        0.055362        0.055362
    20 H        0.039947        0.000000       -0.219988       -0.219988
    21 H        0.306633       -0.000000       -0.039596       -0.039596
    --------------------------------------------------------------------
    Sum:        0.000000        1.000000       -1.000000        0.000000
    
    Multipole moment analysis of the density matrix
      Molecular charge:                      0.000000
      Number of electrons:                   70.000000
        Center of electronic charge [Ang]: [ -0.018555,  -0.007828,   0.010776]
      Total nuclear charge:                  70.000000
        Center of nuclear charge [Ang]:    [ -0.019297,   0.008396,   0.011921]
      Dipole moment [D]:                     5.473962
        Cartesian components [D]:          [ -0.249434,   5.454709,   0.384958]
      RMS size of the density [Ang]:         8.033245
        Cartesian components [Ang]:        [  1.851761,   7.694849,   1.375972]
    
    Exciton analysis of the difference density matrix
      <r_h> [Ang]:                  [  0.867221,   3.824576,   0.194880]
      <r_e> [Ang]:                  [ -0.322173,   3.167582,   0.743302]
      |<r_e - r_h>| [Ang]:            1.465286
      Hole size [Ang]:                0.122783
        Cartesian components [Ang]: [  0.070891,   0.070897,   0.070878]
      Electron size [Ang]:            3.849750
        Cartesian components [Ang]: [  2.783038,   1.859949,   1.901543]

  Singlet 4 :
  -------------------------
    NOs
      Occupation of frontier NOs:
         0.0000   1.0000   1.0000   2.0000
      Number of electrons: 70.000000
      Number of unpaired electrons: n_u =  2.00000, n_u,nl =  2.00000
      NO participation ratio (PR_NO):  2.000000
    
    NDOs
      Leading detachment eigenvalues:
        -1.0000  -0.0000
      Leading attachment eigenvalues:
         1.0000   0.0000
      Number of detached / attached electrons: p_D =  1.0000, p_A =  1.0000
      Number of involved orbitals: PR_D =  1.000000, PR_A =  1.000000
    
    Mulliken Population Analysis (State/Difference DM)
    Atom      Charge (e)              h+              e-           Del q
    --------------------------------------------------------------------
     1 O        0.230298        0.991057        0.013992        1.005049
     2 O       -0.544354        0.000003        0.013502        0.013505
[...]
1097  H 11  s       -0.00503   0.00000  -0.00157   0.00201
1098  H 11  s       -0.00797   0.00000  -0.01658   0.00159
1099  H 11  s        0.03562  -0.00000   0.03584   0.02414
1100  H 11  s        0.19567  -0.00000   0.22232   0.07900
1101  H 11  s       -0.96399   0.00000   0.33430   0.27221
1102  H 11  px       0.00192  -0.00000  -0.00031  -0.00027
1103  H 11  py      -0.00080  -0.00000  -0.00022  -0.00001
1104  H 11  pz       0.00013   0.00000  -0.00000  -0.00007
1105  H 11  px      -0.00229   0.00000  -0.00233  -0.00121
1106  H 11  py       0.00071   0.00000   0.00242   0.00027
1107  H 11  pz       0.00001  -0.00000   0.00082   0.00121
1108  H 11  px       0.05316  -0.00000   0.01534   0.00468
1109  H 11  py      -0.01759   0.00000  -0.02686  -0.00875
1110  H 11  pz       0.00790  -0.00000   0.00655  -0.00357
1111  H 11  px       0.08714  -0.00000   0.06356   0.02181
1112  H 11  py      -0.04270   0.00000  -0.03965  -0.00032
1113  H 11  pz       0.01451  -0.00000   0.01605  -0.02115
1114  H 11  d 1     -0.00025  -0.00000   0.00076   0.00031
1115  H 11  d 2      0.00007   0.00000   0.00006  -0.00019
1116  H 11  d 3     -0.00015   0.00000   0.00005   0.00003
1117  H 11  d 4     -0.00005   0.00000  -0.00013  -0.00020
1118  H 11  d 5      0.00008  -0.00000  -0.00025   0.00005
1119  H 11  d 1      0.00020   0.00000  -0.00539  -0.00256
1120  H 11  d 2     -0.00059  -0.00000  -0.00113   0.00047
1121  H 11  d 3     -0.00036   0.00000  -0.00070  -0.00036
1122  H 11  d 4      0.00100  -0.00000   0.00241   0.00158
1123  H 11  d 5      0.00133  -0.00000   0.00078  -0.00073
1124  H 11  d 1     -0.00525   0.00000  -0.02289  -0.00826
1125  H 11  d 2     -0.00010   0.00000  -0.00413   0.00171
1126  H 11  d 3     -0.00612   0.00000  -0.01792  -0.00877
1127  H 11  d 4      0.00632  -0.00000   0.00717  -0.00702
1128  H 11  d 5      0.00903  -0.00000   0.00514   0.00787
1129  H 11  f 1     -0.00020   0.00000   0.00004   0.00008
1130  H 11  f 2     -0.00003   0.00000  -0.00012  -0.00011
1131  H 11  f 3      0.00015  -0.00000  -0.00029  -0.00010
1132  H 11  f 4      0.00002   0.00000  -0.00009  -0.00007
1133  H 11  f 5     -0.00010   0.00000   0.00008   0.00008
1134  H 11  f 6     -0.00005  -0.00000  -0.00007   0.00003
1135  H 11  f 7      0.00012  -0.00000  -0.00013  -0.00013
1136  H 11  f 1      0.00098   0.00000  -0.00594  -0.00275
1137  H 11  f 2     -0.00061  -0.00000  -0.00160   0.00079
1138  H 11  f 3     -0.00093  -0.00000   0.00403   0.00166
1139  H 11  f 4     -0.00125   0.00000  -0.00128   0.00062
1140  H 11  f 5      0.00033   0.00000  -0.00336  -0.00187
1141  H 11  f 6      0.00157  -0.00000   0.00099  -0.00031
1142  H 11  f 7      0.00105  -0.00000  -0.00152  -0.00009
1143  H 11  g 1      0.00001   0.00000  -0.00028  -0.00010
1144  H 11  g 2     -0.00009   0.00000  -0.00013   0.00005
1145  H 11  g 3     -0.00007  -0.00000   0.00030   0.00012
1146  H 11  g 4      0.00004  -0.00000   0.00008  -0.00004
1147  H 11  g 5     -0.00005   0.00000   0.00019   0.00009
1148  H 11  g 6     -0.00012   0.00000  -0.00012   0.00007
1149  H 11  g 7      0.00000  -0.00000  -0.00002  -0.00004
1150  H 11  g 8      0.00006  -0.00000  -0.00006  -0.00003
1151  H 11  g 9      0.00016  -0.00000  -0.00036  -0.00009
1152  H 12  s       -0.00136   0.00000  -0.00994  -0.00438
1153  H 12  s       -0.00955   0.00000  -0.01494  -0.00548
1154  H 12  s        0.03764  -0.00000  -0.16885  -0.05878
1155  H 12  s        0.26774  -0.00000   0.16752  -0.00517
1156  H 12  s        0.33653  -0.00000  -1.10957  -0.57080
1157  H 12  px      -0.00023   0.00000   0.00003  -0.00006
1158  H 12  py      -0.00004  -0.00000   0.00207   0.00083
1159  H 12  pz       0.00051   0.00000  -0.00202  -0.00100
1160  H 12  px      -0.00001  -0.00000  -0.00036   0.00018
1161  H 12  py      -0.00138   0.00000  -0.00313  -0.00026
1162  H 12  pz      -0.00041  -0.00000   0.00216   0.00084
1163  H 12  px      -0.00270   0.00000   0.00561   0.00823
1164  H 12  py       0.01503  -0.00000   0.01351   0.00580
1165  H 12  pz      -0.01472   0.00000  -0.01491  -0.00830
1166  H 12  px       0.03233  -0.00000  -0.02652   0.02087
1167  H 12  py       0.00544  -0.00000   0.03037   0.02140
1168  H 12  pz      -0.10736   0.00000  -0.09057  -0.02197
1169  H 12  d 1      0.00002   0.00000  -0.00008  -0.00010
1170  H 12  d 2      0.00037  -0.00000  -0.00043  -0.00028
1171  H 12  d 3     -0.00014   0.00000   0.00017   0.00025
1172  H 12  d 4     -0.00008   0.00000   0.00044   0.00035
1173  H 12  d 5      0.00020  -0.00000  -0.00030  -0.00015
1174  H 12  d 1     -0.00054   0.00000   0.00105   0.00066
1175  H 12  d 2     -0.00352   0.00000   0.00375   0.00198
1176  H 12  d 3      0.00115  -0.00000  -0.00158  -0.00143
1177  H 12  d 4      0.00116  -0.00000  -0.00270  -0.00207
1178  H 12  d 5     -0.00199   0.00000   0.00191   0.00119
1179  H 12  d 1      0.00250  -0.00000   0.00006   0.00795
1180  H 12  d 2     -0.00985   0.00000  -0.01822  -0.00568
1181  H 12  d 3      0.01382  -0.00000   0.01585   0.00683
1182  H 12  d 4     -0.00550   0.00000   0.00562  -0.00352
1183  H 12  d 5      0.00116   0.00000  -0.00413  -0.00446
1184  H 12  f 1     -0.00014  -0.00000   0.00007   0.00008
1185  H 12  f 2      0.00016  -0.00000  -0.00016   0.00005
1186  H 12  f 3      0.00002  -0.00000  -0.00072  -0.00020
1187  H 12  f 4      0.00016  -0.00000  -0.00006   0.00008
1188  H 12  f 5     -0.00003   0.00000   0.00016   0.00003
1189  H 12  f 6      0.00014  -0.00000  -0.00025  -0.00029
1190  H 12  f 7      0.00005  -0.00000  -0.00012   0.00009
1191  H 12  f 1      0.00028   0.00000   0.00017  -0.00052
1192  H 12  f 2     -0.00050   0.00000  -0.00008  -0.00209
1193  H 12  f 3      0.00319  -0.00000   0.00411   0.00047
1194  H 12  f 4     -0.00143   0.00000  -0.00085  -0.00092
1195  H 12  f 5     -0.00005  -0.00000  -0.00054   0.00080
1196  H 12  f 6      0.00107  -0.00000   0.00063   0.00108
1197  H 12  f 7     -0.00020   0.00000  -0.00020  -0.00153
1198  H 12  g 1      0.00000   0.00000  -0.00005  -0.00007
1199  H 12  g 2      0.00005  -0.00000  -0.00002   0.00001
1200  H 12  g 3     -0.00003  -0.00000  -0.00003   0.00012
1201  H 12  g 4     -0.00018   0.00000  -0.00013  -0.00001
1202  H 12  g 5     -0.00001   0.00000   0.00005   0.00006
1203  H 12  g 6      0.00002  -0.00000   0.00005  -0.00003
1204  H 12  g 7     -0.00014   0.00000  -0.00003  -0.00000
1205  H 12  g 8      0.00001  -0.00000   0.00005   0.00013
1206  H 12  g 9      0.00001  -0.00000  -0.00001   0.00001
1207  O 7   s       -0.00091   0.00000   0.00137   0.00056
1208  O 7   s        0.00546   0.00000  -0.05709  -0.00546
1209  O 7   s       -0.00237   0.00000  -0.00300   0.00068
1210  O 7   s        0.02539   0.00000  -0.04161  -0.00523
1211  O 7   s       -0.02310  -0.00000  -0.10936  -0.03815
1212  O 7   s       -0.25690   0.00000  -0.62056  -0.16867
1213  O 7   px      -0.00937  -0.00000   0.01771   0.00431
1214  O 7   py       0.01817  -0.00000  -0.01696  -0.01052
1215  O 7   pz       0.00236   0.00000   0.00013   0.00392
1216  O 7   px      -0.01362   0.00000   0.03012   0.00359
1217  O 7   py       0.03049  -0.00000  -0.02516  -0.01588
1218  O 7   pz       0.00578   0.00000   0.00327   0.00599
1219  O 7   px      -0.03946  -0.00000   0.03105   0.03431
1220  O 7   py       0.05022  -0.00000  -0.03867  -0.03783
1221  O 7   pz      -0.00525  -0.00000  -0.01094   0.01928
1222  O 7   px      -0.09255  -0.00000  -0.03163   0.11065
1223  O 7   py       0.02523   0.00000  -0.11487  -0.09426
1224  O 7   pz      -0.07168   0.00000  -0.17651   0.04897
1225  O 7   px      -0.20068   0.00000   0.14087   0.18482
1226  O 7   py       0.07108   0.00000  -0.09728  -0.10284
1227  O 7   pz      -0.13804   0.00000   0.08077   0.08412
1228  O 7   d 1      0.00001  -0.00000   0.00009  -0.00003
1229  O 7   d 2     -0.00002   0.00000  -0.00030   0.00000
1230  O 7   d 3     -0.00010  -0.00000  -0.00021   0.00001
1231  O 7   d 4     -0.00003   0.00000  -0.00032  -0.00010
1232  O 7   d 5     -0.00005   0.00000  -0.00004   0.00006
1233  O 7   d 1     -0.00065   0.00000  -0.00157  -0.00015
1234  O 7   d 2     -0.00015   0.00000   0.00092   0.00013
1235  O 7   d 3      0.00017   0.00000   0.00077  -0.00022
1236  O 7   d 4      0.00076  -0.00000   0.00285   0.00015
1237  O 7   d 5     -0.00010  -0.00000   0.00068   0.00004
1238  O 7   d 1     -0.00793  -0.00000   0.00402   0.01307
1239  O 7   d 2     -0.00215   0.00000  -0.00937   0.00319
1240  O 7   d 3     -0.01036  -0.00000  -0.00858   0.00945
1241  O 7   d 4     -0.01040   0.00000  -0.01454   0.00438
1242  O 7   d 5     -0.00403   0.00000  -0.00238   0.00435
1243  O 7   d 1     -0.02313  -0.00000   0.03633   0.04615
1244  O 7   d 2     -0.00360   0.00000  -0.01584   0.00339
1245  O 7   d 3     -0.03581   0.00000  -0.00365   0.02886
1246  O 7   d 4     -0.06576   0.00000  -0.03763   0.02403
1247  O 7   d 5     -0.02537   0.00000  -0.00125   0.01436
1248  O 7   f 1      0.00003   0.00000  -0.00003  -0.00003
1249  O 7   f 2      0.00010   0.00000  -0.00014  -0.00008
1250  O 7   f 3      0.00005   0.00000  -0.00010  -0.00008
1251  O 7   f 4      0.00009   0.00000  -0.00001  -0.00002
1252  O 7   f 5     -0.00001  -0.00000   0.00036  -0.00002
1253  O 7   f 6     -0.00010   0.00000   0.00035   0.00005
1254  O 7   f 7     -0.00002   0.00000   0.00012   0.00005
1255  O 7   f 1      0.00041   0.00000  -0.00014  -0.00033
1256  O 7   f 2     -0.00052  -0.00000   0.00041   0.00037
1257  O 7   f 3     -0.00097  -0.00000   0.00039   0.00115
1258  O 7   f 4     -0.00039  -0.00000  -0.00010  -0.00012
1259  O 7   f 5      0.00015  -0.00000  -0.00242   0.00009
1260  O 7   f 6      0.00013  -0.00000  -0.00171   0.00011
1261  O 7   f 7      0.00081  -0.00000  -0.00087  -0.00100
1262  O 7   f 1     -0.00463   0.00000  -0.00750  -0.00197
1263  O 7   f 2     -0.01339   0.00000  -0.00017   0.00484
1264  O 7   f 3     -0.00719   0.00000   0.00688   0.00660
1265  O 7   f 4     -0.00749   0.00000  -0.00024   0.00140
1266  O 7   f 5     -0.00885   0.00000  -0.02583  -0.00212
1267  O 7   f 6     -0.00518   0.00000  -0.01191   0.00149
1268  O 7   f 7      0.00347   0.00000  -0.01990  -0.00794
1269  O 7   g 1     -0.00005  -0.00000   0.00015   0.00006
1270  O 7   g 2     -0.00003  -0.00000   0.00008   0.00006
1271  O 7   g 3      0.00012  -0.00000   0.00005  -0.00002
1272  O 7   g 4      0.00012   0.00000  -0.00010  -0.00006
1273  O 7   g 5      0.00003   0.00000   0.00003  -0.00004
1274  O 7   g 6     -0.00004  -0.00000   0.00019   0.00010
1275  O 7   g 7      0.00003  -0.00000   0.00018   0.00005
1276  O 7   g 8     -0.00012   0.00000   0.00017   0.00009
1277  O 7   g 9     -0.00013   0.00000  -0.00001   0.00007
1278  O 7   g 1      0.00064  -0.00000  -0.00209  -0.00076
1279  O 7   g 2      0.00020   0.00000  -0.00166  -0.00014
1280  O 7   g 3     -0.00040   0.00000  -0.00316  -0.00046
1281  O 7   g 4     -0.00131  -0.00000   0.00026   0.00047
1282  O 7   g 5      0.00058  -0.00000  -0.00124  -0.00077
1283  O 7   g 6      0.00002  -0.00000  -0.00333  -0.00036
1284  O 7   g 7     -0.00048   0.00000  -0.00327  -0.00014
1285  O 7   g 8      0.00089   0.00000  -0.00193  -0.00039
1286  O 7   g 9      0.00002  -0.00000   0.00201   0.00079
1287  O 7   h 1     -0.00010   0.00000   0.00041   0.00016
1288  O 7   h 2     -0.00003   0.00000  -0.00007   0.00004
1289  O 7   h 3     -0.00011  -0.00000   0.00002   0.00009
1290  O 7   h 4      0.00006   0.00000  -0.00021  -0.00002
1291  O 7   h 5      0.00007   0.00000  -0.00031  -0.00010
1292  O 7   h 6      0.00012  -0.00000   0.00009  -0.00005
1293  O 7   h 7     -0.00011  -0.00000   0.00007   0.00006
1294  O 7   h 8     -0.00007   0.00000  -0.00034   0.00002
1295  O 7   h 9     -0.00009   0.00000   0.00005   0.00008
1296  O 7   h10     -0.00009   0.00000  -0.00001   0.00002
1297  O 7   h11     -0.00003   0.00000  -0.00011  -0.00000
1298  H 13  s        0.00103  -0.00000   0.00521   0.00025
1299  H 13  s        0.01266  -0.00000   0.01277  -0.00887
1300  H 13  s       -0.04277  -0.00000   0.19386   0.14898
1301  H 13  s       -0.01954  -0.00000  -0.14818   0.22909
1302  H 13  s       -0.50836   0.00000   1.04881   0.36674
1303  H 13  px       0.00064   0.00000  -0.00217  -0.00053
1304  H 13  py      -0.00077  -0.00000   0.00242   0.00063
1305  H 13  pz      -0.00011  -0.00000  -0.00026   0.00006
1306  H 13  px       0.00142  -0.00000   0.00512  -0.00063
1307  H 13  py      -0.00023   0.00000  -0.00658  -0.00058
1308  H 13  pz       0.00161   0.00000  -0.00050  -0.00082
1309  H 13  px      -0.00835   0.00000  -0.00169   0.03380
1310  H 13  py      -0.00555   0.00000   0.02506  -0.02306
1311  H 13  pz      -0.02287   0.00000   0.02296   0.01933
1312  H 13  px      -0.00827  -0.00000  -0.04687   0.06036
1313  H 13  py       0.00962   0.00000   0.04814  -0.06847
1314  H 13  pz      -0.02274   0.00000  -0.00811   0.02524
1315  H 13  d 1     -0.00045   0.00000   0.00007   0.00036
1316  H 13  d 2     -0.00026   0.00000   0.00034   0.00013
1317  H 13  d 3     -0.00014  -0.00000  -0.00006   0.00012
1318  H 13  d 4      0.00052  -0.00000  -0.00047  -0.00028
1319  H 13  d 5      0.00026  -0.00000  -0.00029  -0.00022
1320  H 13  d 1      0.00235  -0.00000  -0.00261  -0.00527
1321  H 13  d 2      0.00213  -0.00000  -0.00414  -0.00214
1322  H 13  d 3      0.00042   0.00000  -0.00043  -0.00234
1323  H 13  d 4     -0.00382   0.00000   0.00531   0.00310
1324  H 13  d 5     -0.00159   0.00000   0.00350   0.00162
1325  H 13  d 1      0.00387  -0.00000   0.02890  -0.01236
1326  H 13  d 2      0.01242  -0.00000  -0.00447  -0.00940
1327  H 13  d 3      0.00018  -0.00000   0.01744  -0.00568
1328  H 13  d 4     -0.00884   0.00000   0.00137   0.00749
1329  H 13  d 5     -0.00366   0.00000   0.00795   0.00230
1330  H 13  f 1      0.00007  -0.00000  -0.00057  -0.00034
1331  H 13  f 2      0.00012   0.00000  -0.00056  -0.00023
1332  H 13  f 3     -0.00003   0.00000   0.00011   0.00018
1333  H 13  f 4      0.00012  -0.00000  -0.00041  -0.00020
1334  H 13  f 5     -0.00009   0.00000  -0.00006  -0.00010
1335  H 13  f 6     -0.00017   0.00000   0.00043   0.00014
1336  H 13  f 7     -0.00001   0.00000  -0.00021  -0.00017
1337  H 13  f 1      0.00181  -0.00000   0.00204  -0.00202
1338  H 13  f 2      0.00345  -0.00000  -0.00133  -0.00233
1339  H 13  f 3      0.00033   0.00000  -0.00360   0.00025
1340  H 13  f 4      0.00231  -0.00000  -0.00097  -0.00159
1341  H 13  f 5      0.00067  -0.00000   0.00220  -0.00106
1342  H 13  f 6      0.00024   0.00000  -0.00144  -0.00032
1343  H 13  f 7      0.00060   0.00000   0.00520  -0.00091
1344  H 13  g 1      0.00006  -0.00000  -0.00017  -0.00009
1345  H 13  g 2      0.00022   0.00000  -0.00019  -0.00016
1346  H 13  g 3      0.00002  -0.00000  -0.00030   0.00004
1347  H 13  g 4     -0.00017  -0.00000   0.00007   0.00013
1348  H 13  g 5      0.00003  -0.00000  -0.00019   0.00002
1349  H 13  g 6      0.00019   0.00000  -0.00015  -0.00015
1350  H 13  g 7      0.00003  -0.00000  -0.00013  -0.00004
1351  H 13  g 8      0.00016  -0.00000  -0.00008  -0.00012
1352  H 13  g 9      0.00012  -0.00000   0.00021  -0.00016
1353  H 14  s       -0.00088  -0.00000   0.00174   0.00028
1354  H 14  s       -0.00341  -0.00000   0.00556   0.00619
1355  H 14  s        0.14477  -0.00000   0.19511  -0.07671
1356  H 14  s        0.28413  -0.00000   0.19841  -0.08507
1357  H 14  s        0.55259  -0.00000  -0.17995  -0.24897
1358  H 14  px      -0.00017  -0.00000   0.00043  -0.00003
1359  H 14  py       0.00005  -0.00000   0.00008  -0.00005
1360  H 14  pz      -0.00004  -0.00000   0.00056  -0.00025
1361  H 14  px       0.00112   0.00000  -0.00051  -0.00030
1362  H 14  py      -0.00034   0.00000  -0.00065  -0.00019
1363  H 14  pz       0.00018   0.00000  -0.00214   0.00006
1364  H 14  px      -0.03631  -0.00000  -0.03065   0.01460
1365  H 14  py      -0.01438   0.00000  -0.03958   0.00392
1366  H 14  pz      -0.04225   0.00000  -0.04728   0.01669
1367  H 14  px      -0.01620  -0.00000  -0.04476   0.02481
1368  H 14  py      -0.06476   0.00000  -0.02519   0.03824
1369  H 14  pz      -0.06367  -0.00000  -0.03450   0.06931
1370  H 14  d 1     -0.00012  -0.00000  -0.00071   0.00010
1371  H 14  d 2     -0.00030   0.00000  -0.00034   0.00019
1372  H 14  d 3     -0.00018   0.00000  -0.00004   0.00025
1373  H 14  d 4     -0.00017  -0.00000  -0.00001   0.00035
1374  H 14  d 5      0.00014  -0.00000   0.00028  -0.00001
1375  H 14  d 1      0.00143   0.00000   0.00718  -0.00068
1376  H 14  d 2      0.00205  -0.00000   0.00724  -0.00114
1377  H 14  d 3      0.00237  -0.00000   0.00336  -0.00236
1378  H 14  d 4      0.00500   0.00000   0.00537  -0.00382
1379  H 14  d 5      0.00115   0.00000  -0.00106  -0.00082
1380  H 14  d 1      0.00905   0.00000  -0.00226  -0.00404
1381  H 14  d 2      0.00361   0.00000   0.00960  -0.00225
1382  H 14  d 3      0.00370   0.00000  -0.00920  -0.00598
1383  H 14  d 4      0.00978   0.00000  -0.00014  -0.00469
1384  H 14  d 5      0.00456  -0.00000  -0.00273  -0.00137
1385  H 14  f 1      0.00012  -0.00000  -0.00046  -0.00007
1386  H 14  f 2      0.00001  -0.00000  -0.00074  -0.00003
1387  H 14  f 3     -0.00009   0.00000  -0.00050  -0.00005
1388  H 14  f 4      0.00013   0.00000  -0.00016  -0.00010
1389  H 14  f 5     -0.00027   0.00000  -0.00076   0.00006
1390  H 14  f 6     -0.00022  -0.00000  -0.00030   0.00012
1391  H 14  f 7     -0.00019   0.00000  -0.00010   0.00011
1392  H 14  f 1     -0.00203  -0.00000   0.00012   0.00101
1393  H 14  f 2     -0.00227  -0.00000  -0.00238   0.00163
1394  H 14  f 3     -0.00028  -0.00000  -0.00145   0.00143
1395  H 14  f 4     -0.00011   0.00000   0.00266   0.00114
1396  H 14  f 5     -0.00150  -0.00000   0.00276   0.00271
1397  H 14  f 6     -0.00105  -0.00000   0.00263   0.00079
1398  H 14  f 7      0.00044  -0.00000   0.00281  -0.00014
1399  H 14  g 1      0.00008   0.00000  -0.00000  -0.00004
1400  H 14  g 2      0.00012   0.00000   0.00023  -0.00005
1401  H 14  g 3      0.00009  -0.00000   0.00023  -0.00012
1402  H 14  g 4     -0.00005  -0.00000   0.00003  -0.00005
1403  H 14  g 5     -0.00009  -0.00000  -0.00006   0.00005
1404  H 14  g 6      0.00004  -0.00000  -0.00023  -0.00016
1405  H 14  g 7      0.00007   0.00000  -0.00016  -0.00006
1406  H 14  g 8      0.00003   0.00000  -0.00028  -0.00002
1407  H 14  g 9      0.00001  -0.00000  -0.00021  -0.00002

 -----------------------------------------------------------------
                    Cartesian Multipole Moments
 -----------------------------------------------------------------
    Charge (ESU x 10^10)
                 0.0000
    Dipole Moment (Debye)
         X      -5.9623      Y       2.2990      Z       3.0191
       Tot       7.0675
    Quadrupole Moments (Debye-Ang)
        XX     -36.3025     XY       7.3399     YY      -6.0446
        XZ      -1.5468     YZ      32.9064     ZZ     -55.2510
    Octopole Moments (Debye-Ang^2)
       XXX     -17.8920    XXY      79.8991    XYY    -570.6234
       YYY    -363.0606    XXZ      22.5133    XYZ      -7.7951
       YYZ    -316.0689    XZZ     -12.6503    YZZ     -28.8928
       ZZZ      23.3546
    Hexadecapole Moments (Debye-Ang^3)
      XXXX    -756.5342   XXXY      30.1080   XXYY   -2679.5332
      XYYY    8845.9994   YYYY   -2547.7546   XXXZ     -32.1827
      XXYZ      20.6581   XYYZ     128.0275   YYYZ    6165.9961
      XXZZ    -225.4934   XYZZ      49.4821   YYZZ   -2460.4202
      XZZZ     -32.9014   YZZZ     -40.4612   ZZZZ    -562.0004
 -----------------------------------------------------------------
 Total job time:  286040.39s(wall), 285856.15s(cpu) 
 Fri Jan  3 23:41:47 2025

        *************************************************************
        *                                                           *
        *  Thank you very much for using Q-Chem.  Have a nice day.  *
        *                                                           *
        *************************************************************


