                  Welcome to Q-Chem
     A Quantum Leap Into The Future Of Chemistry


 Q-Chem 6.2 (devel), Q-Chem, Inc., Pleasanton, CA (2024)

 E. Epifanovsky,  A. T. B. Gilbert,  Xintian Feng,  Joonho Lee,  Yuezhi Mao,  
 N. Mardirossian,  P. Pokhilko,  A. White,  M. Wormit,  M. P. Coons,  
 A. L. Dempwolff,  Zhengting Gan,  D. Hait,  P. R. Horn,  L. D. Jacobson,  
 I. Kaliman,  J. Kussmann,  A. W. Lange,  Ka Un Lao,  D. S. Levine,  Jie Liu,  
 S. C. McKenzie,  A. F. Morrison,  K. D. Nanda,  F. Plasser,  D. R. Rehn,  
 M. L. Vidal,  Zhi-Qiang You,  Ying Zhu,  Huseyin Aksu,  B. Alam,  
 B. Albrecht,  A. Aldossary,  E. Alguire,  J. H. Andersen,  
 J. E. Arias-Martinez,  V. Athavale,  D. Barton,  K. Begam,  A. Behn,  
 N. Bellonzi,  Y. A. Bernard,  E. J. Berquist,  H. Burton,  A. Carreras,  
 K. Carter-Fenk,  Mathew Chow,  Romit Chakraborty,  Chandrima Chakravarty,  
 Junhan Chen,  A. D. Chien,  K. D. Closser,  V. Cofer-Shabica,  L. Cunha,  
 S. Dasgupta,  Jia Deng,  Joseph Dickinson,  M. de Wergifosse,  
 M. Diedenhofen,  Hainam Do,  Wenjie Dou,  S. Ehlert,  Po-Tung Fang,  
 S. Fatehi,  Qingguo Feng,  Jonathan Fetherolf,  T. Friedhoff,  
 Thomas Froitzheim,  Sarai Folkestad,  B. Ganoe,  J. Gayvert,  Qinghui Ge,  
 G. Gidofalvi,  M. Gimferrer,  M. Goldey,  Montgomery Gray,  J. Gomes,  
 C. Gonzalez-Espinoza,  S. Gulania,  A. Gunina,  J. A. Gyamfi,  
 M. W. D. Hanson-Heine,  P. H. P. Harbach,  A. W. Hauser,  M. F. Herbst,  
 M. Hernandez Vera,  M. Hodecker,  Z. C. Holden,  S. Houck,  Xunkun Huang,  
 Kerwin Hui,  B. C. Huynh,  K. Ikeda,  M. Ivanov,  Nayanthara K. Jayadev,  
 Hyunjun Ji,  Zuxin Jin,  Hanjie Jiang,  Subrata Jana,  B. Kaduk,  
 S. Kaehler,  R. Kang,  K. Khistyaev,  Jaehoon Kim,  Yongbin Kim,  
 P. Klunzinger,  Z. Koczor-Benda,  Joong Hoon Koh,  D. Kosenkov,  
 Saikiran Kotaru,  L. Koulias,  T. Kowalczyk,  C. M. Krauter,  K. Kue,  
 A. Kunitsa,  T. Kus,  A. Landau,  K. V. Lawler,  D. Lefrancois,  S. Lehtola,  
 Rain Li,  Shaozhi Li,  Tao E. Li,  Yi-Pei Li,  Jiashu Liang,  M. Liebenthal,  
 Hung-Hsuan Lin,  You-Sheng Lin,  Fenglai Liu,  Kuan-Yu Liu,  Xiao Liu,  
 M. Loipersberger,  A. Luenser,  C. Malbon,  Aniket Mandal,  Manisha,  
 A. Manjanath,  P. Manohar,  E. Mansoor,  S. F. Manzer,  Shan-Ping Mao,  
 A. V. Marenich,  T. Markovich,  S. Mason,  F. Matz,  S. A. Maurer,  
 Samuel May,  Alexandra McIsaac,  P. F. McLaughlin,  M. F. S. J. Menger,  
 J.-M. Mewes,  S. A. Mewes,  P. Morgante,  Mohammad Mostafanejad,  
 Madhubani Mukherjee,  J. W. Mullinax,  Quyen Nguyen,  Avik Kumar Ojha,  
 K. J. Oosterbaan,  Eno Paenurk,  Xiaoliang Pan,  G. Paran,  V. Parravicini,  
 Alexander C. Paul,  Suranjan K. Paul,  F. Pavosevic,  Zheng Pei,  S. Prager,  
 E. I. Proynov,  E. Ramos,  B. Rana,  A. E. Rask,  A. Rettig,  R. M. Richard,  
 F. Rob,  E. Rossomme,  T. Scheele,  M. Scheurer,  M. Schneider,  
 P. E. Schneider,  Tim K. Schramm,  N. Sergueev,  S. M. Sharada,  
 Hengyuan Shen,  W. Skomorowski,  D. W. Small,  C. J. Stein,  
 Alistair J. Sterling,  Yingli Su,  Yu-Chuan Su,  E. J. Sundstrom,  
 J. Talbot,  Zhen Tao,  J. Thirman,  Hung-Yi Tsai,  T. Tsuchimochi,  
 N. M. Tubman,  C. Utku,  S. P. Veccham,  O. Vydrov,  Rahel Weiss,  
 J. Wenzel,  Jonathan Wong,  J. Witte,  H. Wu,  Yanze Wu,  A. Yamada,  
 Chou-Hsun Yang,  Kun Yao,  S. Yeganeh,  S. R. Yost,  Qi Yu,  A. Zech,  
 F. Zeller,  Chongxiao Zhao,  Igor Ying Zhang,  Xing Zhang,  Yu Zhang,  
 D. Zuev,  A. Aspuru-Guzik,  A. T. Bell,  N. A. Besley,  K. B. Bravaya,  
 B. R. Brooks,  D. Casanova,  Jeng-Da Chai,  Hsing-Ta Chen,  S. Coriani,  
 C. J. Cramer,  A. E. DePrince, III,  R. A. DiStasio Jr.,  A. Dreuw,  
 B. D. Dunietz,  T. R. Furlani,  W. A. Goddard III,  S. Grimme,  
 S. Hammes-Schiffer,  T. Head-Gordon,  W. J. Hehre,  Chao-Ping Hsu,  
 T.-C. Jagau,  Yousung Jung,  A. Klamt,  Jing Kong,  D. S. Lambrecht,  
 Xiangyuan Li,  WanZhen Liang,  N. J. Mayhall,  C. W. McCurdy,  J. B. Neaton,  
 T. Neudecker,  C. Ochsenfeld,  J. A. Parkhill,  R. Peverati,  
 V. A. Rassolov,  Haisheng Ren,  Yihan Shao,  L. V. Slipchenko,  
 R. P. Steele,  J. E. Subotnik,  A. J. W. Thom,  A. Tkatchenko,  
 D. G. Truhlar,  T. Van Voorhis,  Fan Wang,  T. A. Wesolowski,  K. B. Whaley,  
 H. L. Woodcock III,  P. M. Zimmerman,  S. Faraji,  P. M. W. Gill,  
 M. Head-Gordon,  J. M. Herbert,  A. I. Krylov

 Contributors to earlier versions of Q-Chem not listed above: 
 R. D. Adamson,  B. Austin,  R. Baer,  J. Baker,  G. J. O. Beran,  
 K. Brandhorst,  S. T. Brown,  E. F. C. Byrd,  Arup K. Chakraborty,  
 G. K. L. Chan,  Chun-Min Chang,  Yunqing Chen,  C.-L. Cheng,  
 Siu Hung Chien,  D. M. Chipman,  D. L. Crittenden,  H. Dachsel,  
 R. J. Doerksen,  A. D. Dutoi,  R. G. Edgar,  J. Fosso-Tande,  
 L. Fusti-Molnar,  D. Ghosh,  A. Ghysels,  A. Golubeva-Zadorozhnaya,  
 J. Gonthier,  M. S. Gordon,  S. R. Gwaltney,  G. Hawkins,  J. E. Herr,  
 A. Heyden,  S. Hirata,  E. G. Hohenstein,  G. Kedziora,  F. J. Keil,  
 C. Kelley,  Jihan Kim,  R. A. King,  R. Z. Khaliullin,  P. P. Korambath,  
 W. Kurlancheek,  A. Laurent,  A. M. Lee,  M. S. Lee,  S. V. Levchenko,  
 Ching Yeh Lin,  D. Liotard,  E. Livshits,  R. C. Lochan,  I. Lotan,  
 L. A. Martinez-Martinez,  P. E. Maslen,  N. Nair,  D. P. O'Neill,  
 D. Neuhauser,  E. Neuscamman,  C. M. Oana,  R. Olivares-Amaya,  R. Olson,  
 T. M. Perrine,  B. Peters,  P. A. Pieniazek,  A. Prociuk,  Y. M. Rhee,  
 J. Ritchie,  M. A. Rohrdanz,  E. Rosta,  N. J. Russ,  H. F. Schaefer III,  
 M. W. Schmidt,  N. E. Schultz,  S. Sharma,  N. Shenvi,  C. D. Sherrill,  
 A. C. Simmonett,  A. Sodt,  T. Stein,  D. Stuck,  K. S. Thanthiriwatte,  
 V. Vanovschi,  L. Vogt,  Tao Wang,  A. Warshel,  M. A. Watson,  
 C. F. Williams,  Q. Wu,  X. Xu,  Jun Yang,  W. Zhang,  Yan Zhao

   Please cite Q-Chem as follows:
  "Software for the frontiers of quantum chemistry:
   An overview of developments in the Q-Chem 5 package"
   J. Chem. Phys. 155, 084801 (2021)
   https://doi.org/10.1063/5.0055522 (open access)

 Q-Chem 6.2.2 for Intel X86 EM64T Linux

 Parts of Q-Chem use Armadillo 9.900.5 (Nocturnal Misbehaviour).
 http://arma.sourceforge.net/

 Q-Chem begins on Wed Dec 11 18:18:00 2024  

 Host: compute-0-13.local
0

     Scratch files written to /scratch/keith/1h2o_b3lyp_cc-pvtz//
 Processing $rem in /home/keith/software/qchem/qchem_622/config/preferences:
 Processing $rem in /home/keith/.qchemrc:

 Checking the input file for inconsistencies... 	...done.

--------------------------------------------------------------
User input:
--------------------------------------------------------------
$molecule
   0 1
   O   0.0000   0.0000   0.1168
   H   0.0000   0.7629  -0.4672
   H   0.0000  -0.7629  -0.4672
$end

$rem
   METHOD       B3LYP
   BASIS        cc-pv5z
   SYMMETRY     false
   SYM_IGNORE   true
$end

--------------------------------------------------------------
 ----------------------------------------------------------------
             Standard Nuclear Orientation (Angstroms)
    I     Atom           X                Y                Z
 ----------------------------------------------------------------
    1      O       0.0000000000     0.0000000000     0.1168000000
    2      H       0.0000000000     0.7629000000    -0.4672000000
    3      H       0.0000000000    -0.7629000000    -0.4672000000
 ----------------------------------------------------------------
 Nuclear Repulsion Energy =           9.15940272 hartrees
 There are        5 alpha and        5 beta electrons
 Requested basis set is cc-pV5Z
 There are 51 shells and 201 basis functions

 Total QAlloc Memory Limit   2000 MB
 Mega-Array Size       188 MB
 MEM_STATIC part       192 MB


                       Distance Matrix (Angstroms)
             O (  1)   H (  2)
   H (  2)  0.960767
   H (  3)  0.960767  1.525800

 A cutoff of  1.0D-09 yielded   1326 shell pairs
 There are     20786 function pairs (     36645 Cartesian)
 Smallest overlap matrix eigenvalue = 5.19E-05

 Scale SEOQF with 1.000000e+00/1.000000e+00/1.000000e+00

 Standard Electronic Orientation quadrupole field applied
 Nucleus-field energy     =     0.0000000002 hartrees
 Guess from superposition of atomic densities
 Warning:  Energy on first SCF cycle will be non-variational
 SAD guess density has 10.000000 electrons

 -----------------------------------------------------------------------
  General SCF calculation program by
  Eric Jon Sundstrom, Paul Horn, Yuezhi Mao, Dmitri Zuev, Alec White,
  David Stuck, Shaama M.S., Shane Yost, Joonho Lee, David Small,
  Daniel Levine, Susi Lehtola, Hugh Burton, Evgeny Epifanovsky,
  Bang C. Huynh
 -----------------------------------------------------------------------
 Exchange:     0.2000 Hartree-Fock + 0.0800 Slater + 0.7200 B88
 Correlation:  0.1900 VWN1RPA + 0.8100 LYP
 Using SG-1 standard quadrature grid
 A restricted SCF calculation will be
 performed using DIIS
 SCF converges when DIIS error is below 1.0e-05
 ---------------------------------------
  Cycle       Energy         DIIS error
 ---------------------------------------
    1     -76.4246504523      1.63e-02  
    2     -76.4010132784      4.48e-03  
    3     -76.3138804061      6.74e-03  
    4     -76.4733078292      1.20e-04  
    5     -76.4733555522      3.73e-05  
    6     -76.4733593452      5.98e-06  Convergence criterion met
 ---------------------------------------
 SCF time:   CPU 354.97s  wall 14.00s 
 SCF   energy =   -76.47335935
 Total energy =   -76.47335935

 --------------------------------------------------------------

                    Orbital Energies (a.u.)
 --------------------------------------------------------------

 Alpha MOs
 -- Occupied --
-19.1327  -1.0187  -0.5394  -0.3970  -0.3223
 -- Virtual --
 -0.0039   0.0596   0.2069   0.2271   0.2490   0.2564   0.3444   0.3596
  0.4100   0.4591   0.5176   0.6268   0.6782   0.7230   0.7983   0.8201
  0.9934   0.9956   1.0420   1.0644   1.1675   1.2422   1.3308   1.4254
  1.5103   1.5111   1.5249   1.6832   1.6959   1.6972   1.7713   1.7717
  1.8020   1.8926   1.9947   2.0033   2.1689   2.2628   2.3162   2.4334
  2.4347   2.6074   2.6234   2.6843   2.7207   2.8589   2.9011   3.0104
  3.1662   3.2664   3.3745   3.4457   3.4617   3.4927   3.5041   3.7708
  3.7868   3.9075   3.9905   4.0159   4.2696   4.3849   4.4138   4.4208
  4.4388   4.5007   4.5345   4.5796   4.7002   4.7053   4.7557   4.8333
  4.9213   5.0390   5.1777   5.2802   5.3343   5.4187   5.6275   5.6672
  5.8628   5.9897   6.2085   6.2400   6.3513   6.5570   6.6246   6.7118
  6.7637   6.7993   6.8650   6.9438   7.0751   7.0980   7.2051   7.3537
  7.4405   7.5415   7.7827   7.8008   7.8187   8.1966   8.5382   8.9930
  9.0064   9.0114   9.6802   9.6907   9.7448  11.7033  11.7499  11.7740
 11.8630  11.9830  12.0812  12.1621  12.1622  12.1941  12.2041  12.3116
 12.3270  12.4098  12.4529  12.5541  12.5975  12.7100  12.7105  12.8344
 12.9202  12.9888  13.1857  13.2470  13.3183  13.3201  13.3886  13.4291
 13.4761  13.5473  13.6064  13.7635  13.7722  13.8289  14.0517  14.1416
 14.2173  14.2959  14.5955  14.6858  15.1213  15.5252  15.5849  15.7153
 15.8358  16.0024  16.0415  16.0540  16.0597  16.1978  16.3067  16.3676
 16.7302  17.0264  17.0271  17.1797  17.2895  17.5236  17.6713  17.7008
 18.0101  18.2042  18.2589  18.3707  18.3927  18.6185  18.8797  18.9326
 19.3351  19.3852  19.4053  19.4072  19.7214  19.7264  20.6565  20.9011
 21.8222  21.8624  22.2186  23.0278  23.1158  23.1923  23.3104  24.3188
 24.7601  25.0407  26.0124  63.9773
 --------------------------------------------------------------

          Ground-State Mulliken Net Atomic Charges

     Atom                 Charge (a.u.)
  ----------------------------------------
      1 O                    -0.562202
      2 H                     0.281101
      3 H                     0.281101
  ----------------------------------------
  Sum of atomic charges =     0.000000

 -----------------------------------------------------------------
                    Cartesian Multipole Moments
 -----------------------------------------------------------------
    Charge (ESU x 10^10)
                 0.0000
    Dipole Moment (Debye)
         X      -0.0000      Y      -0.0000      Z      -1.8857
       Tot       1.8857
    Quadrupole Moments (Debye-Ang)
        XX      -7.6846     XY       0.0000     YY      -4.4229
        XZ      -0.0000     YZ      -0.0000     ZZ      -6.4383
    Octopole Moments (Debye-Ang^2)
       XXX      -0.0000    XXY      -0.0000    XYY      -0.0000
       YYY       0.0000    XXZ      -0.2490    XYZ      -0.0000
       YYZ      -1.3089    XZZ      -0.0000    YZZ      -0.0000
       ZZZ      -1.0673
    Hexadecapole Moments (Debye-Ang^3)
      XXXX      -7.0702   XXXY       0.0000   XXYY      -2.5928
      XYYY       0.0000   YYYY      -6.5122   XXXZ      -0.0000
      XXYZ       0.0000   XYYZ      -0.0000   YYYZ      -0.0000
      XXZZ      -2.5143   XYZZ       0.0000   YYZZ      -2.0624
      XZZZ      -0.0000   YZZZ       0.0000   ZZZZ      -7.7160
 -----------------------------------------------------------------
 Total job time:  17.55s(wall), 365.04s(cpu) 
 Wed Dec 11 18:18:18 2024

        *************************************************************
        *                                                           *
        *  Thank you very much for using Q-Chem.  Have a nice day.  *
        *                                                           *
        *************************************************************


 
User input: 2 of 2 
 
                  Welcome to Q-Chem
     A Quantum Leap Into The Future Of Chemistry


 Q-Chem 6.2 (devel), Q-Chem, Inc., Pleasanton, CA (2024)

 E. Epifanovsky,  A. T. B. Gilbert,  Xintian Feng,  Joonho Lee,  Yuezhi Mao,  
 N. Mardirossian,  P. Pokhilko,  A. White,  M. Wormit,  M. P. Coons,  
 A. L. Dempwolff,  Zhengting Gan,  D. Hait,  P. R. Horn,  L. D. Jacobson,  
 I. Kaliman,  J. Kussmann,  A. W. Lange,  Ka Un Lao,  D. S. Levine,  Jie Liu,  
 S. C. McKenzie,  A. F. Morrison,  K. D. Nanda,  F. Plasser,  D. R. Rehn,  
 M. L. Vidal,  Zhi-Qiang You,  Ying Zhu,  Huseyin Aksu,  B. Alam,  
 B. Albrecht,  A. Aldossary,  E. Alguire,  J. H. Andersen,  
 J. E. Arias-Martinez,  V. Athavale,  D. Barton,  K. Begam,  A. Behn,  
 N. Bellonzi,  Y. A. Bernard,  E. J. Berquist,  H. Burton,  A. Carreras,  
 K. Carter-Fenk,  Mathew Chow,  Romit Chakraborty,  Chandrima Chakravarty,  
 Junhan Chen,  A. D. Chien,  K. D. Closser,  V. Cofer-Shabica,  L. Cunha,  
 S. Dasgupta,  Jia Deng,  Joseph Dickinson,  M. de Wergifosse,  
 M. Diedenhofen,  Hainam Do,  Wenjie Dou,  S. Ehlert,  Po-Tung Fang,  
 S. Fatehi,  Qingguo Feng,  Jonathan Fetherolf,  T. Friedhoff,  
 Thomas Froitzheim,  Sarai Folkestad,  B. Ganoe,  J. Gayvert,  Qinghui Ge,  
 G. Gidofalvi,  M. Gimferrer,  M. Goldey,  Montgomery Gray,  J. Gomes,  
 C. Gonzalez-Espinoza,  S. Gulania,  A. Gunina,  J. A. Gyamfi,  
 M. W. D. Hanson-Heine,  P. H. P. Harbach,  A. W. Hauser,  M. F. Herbst,  
 M. Hernandez Vera,  M. Hodecker,  Z. C. Holden,  S. Houck,  Xunkun Huang,  
 Kerwin Hui,  B. C. Huynh,  K. Ikeda,  M. Ivanov,  Nayanthara K. Jayadev,  
 Hyunjun Ji,  Zuxin Jin,  Hanjie Jiang,  Subrata Jana,  B. Kaduk,  
 S. Kaehler,  R. Kang,  K. Khistyaev,  Jaehoon Kim,  Yongbin Kim,  
 P. Klunzinger,  Z. Koczor-Benda,  Joong Hoon Koh,  D. Kosenkov,  
 Saikiran Kotaru,  L. Koulias,  T. Kowalczyk,  C. M. Krauter,  K. Kue,  
 A. Kunitsa,  T. Kus,  A. Landau,  K. V. Lawler,  D. Lefrancois,  S. Lehtola,  
 Rain Li,  Shaozhi Li,  Tao E. Li,  Yi-Pei Li,  Jiashu Liang,  M. Liebenthal,  
 Hung-Hsuan Lin,  You-Sheng Lin,  Fenglai Liu,  Kuan-Yu Liu,  Xiao Liu,  
 M. Loipersberger,  A. Luenser,  C. Malbon,  Aniket Mandal,  Manisha,  
 A. Manjanath,  P. Manohar,  E. Mansoor,  S. F. Manzer,  Shan-Ping Mao,  
 A. V. Marenich,  T. Markovich,  S. Mason,  F. Matz,  S. A. Maurer,  
 Samuel May,  Alexandra McIsaac,  P. F. McLaughlin,  M. F. S. J. Menger,  
 J.-M. Mewes,  S. A. Mewes,  P. Morgante,  Mohammad Mostafanejad,  
 Madhubani Mukherjee,  J. W. Mullinax,  Quyen Nguyen,  Avik Kumar Ojha,  
 K. J. Oosterbaan,  Eno Paenurk,  Xiaoliang Pan,  G. Paran,  V. Parravicini,  
 Alexander C. Paul,  Suranjan K. Paul,  F. Pavosevic,  Zheng Pei,  S. Prager,  
 E. I. Proynov,  E. Ramos,  B. Rana,  A. E. Rask,  A. Rettig,  R. M. Richard,  
 F. Rob,  E. Rossomme,  T. Scheele,  M. Scheurer,  M. Schneider,  
 P. E. Schneider,  Tim K. Schramm,  N. Sergueev,  S. M. Sharada,  
 Hengyuan Shen,  W. Skomorowski,  D. W. Small,  C. J. Stein,  
 Alistair J. Sterling,  Yingli Su,  Yu-Chuan Su,  E. J. Sundstrom,  
 J. Talbot,  Zhen Tao,  J. Thirman,  Hung-Yi Tsai,  T. Tsuchimochi,  
 N. M. Tubman,  C. Utku,  S. P. Veccham,  O. Vydrov,  Rahel Weiss,  
 J. Wenzel,  Jonathan Wong,  J. Witte,  H. Wu,  Yanze Wu,  A. Yamada,  
 Chou-Hsun Yang,  Kun Yao,  S. Yeganeh,  S. R. Yost,  Qi Yu,  A. Zech,  
 F. Zeller,  Chongxiao Zhao,  Igor Ying Zhang,  Xing Zhang,  Yu Zhang,  
 D. Zuev,  A. Aspuru-Guzik,  A. T. Bell,  N. A. Besley,  K. B. Bravaya,  
 B. R. Brooks,  D. Casanova,  Jeng-Da Chai,  Hsing-Ta Chen,  S. Coriani,  
 C. J. Cramer,  A. E. DePrince, III,  R. A. DiStasio Jr.,  A. Dreuw,  
 B. D. Dunietz,  T. R. Furlani,  W. A. Goddard III,  S. Grimme,  
 S. Hammes-Schiffer,  T. Head-Gordon,  W. J. Hehre,  Chao-Ping Hsu,  
 T.-C. Jagau,  Yousung Jung,  A. Klamt,  Jing Kong,  D. S. Lambrecht,  
 Xiangyuan Li,  WanZhen Liang,  N. J. Mayhall,  C. W. McCurdy,  J. B. Neaton,  
 T. Neudecker,  C. Ochsenfeld,  J. A. Parkhill,  R. Peverati,  
 V. A. Rassolov,  Haisheng Ren,  Yihan Shao,  L. V. Slipchenko,  
 R. P. Steele,  J. E. Subotnik,  A. J. W. Thom,  A. Tkatchenko,  
 D. G. Truhlar,  T. Van Voorhis,  Fan Wang,  T. A. Wesolowski,  K. B. Whaley,  
 H. L. Woodcock III,  P. M. Zimmerman,  S. Faraji,  P. M. W. Gill,  
 M. Head-Gordon,  J. M. Herbert,  A. I. Krylov

 Contributors to earlier versions of Q-Chem not listed above: 
 R. D. Adamson,  B. Austin,  R. Baer,  J. Baker,  G. J. O. Beran,  
 K. Brandhorst,  S. T. Brown,  E. F. C. Byrd,  Arup K. Chakraborty,  
 G. K. L. Chan,  Chun-Min Chang,  Yunqing Chen,  C.-L. Cheng,  
 Siu Hung Chien,  D. M. Chipman,  D. L. Crittenden,  H. Dachsel,  
 R. J. Doerksen,  A. D. Dutoi,  R. G. Edgar,  J. Fosso-Tande,  
 L. Fusti-Molnar,  D. Ghosh,  A. Ghysels,  A. Golubeva-Zadorozhnaya,  
 J. Gonthier,  M. S. Gordon,  S. R. Gwaltney,  G. Hawkins,  J. E. Herr,  
 A. Heyden,  S. Hirata,  E. G. Hohenstein,  G. Kedziora,  F. J. Keil,  
 C. Kelley,  Jihan Kim,  R. A. King,  R. Z. Khaliullin,  P. P. Korambath,  
 W. Kurlancheek,  A. Laurent,  A. M. Lee,  M. S. Lee,  S. V. Levchenko,  
 Ching Yeh Lin,  D. Liotard,  E. Livshits,  R. C. Lochan,  I. Lotan,  
 L. A. Martinez-Martinez,  P. E. Maslen,  N. Nair,  D. P. O'Neill,  
 D. Neuhauser,  E. Neuscamman,  C. M. Oana,  R. Olivares-Amaya,  R. Olson,  
 T. M. Perrine,  B. Peters,  P. A. Pieniazek,  A. Prociuk,  Y. M. Rhee,  
 J. Ritchie,  M. A. Rohrdanz,  E. Rosta,  N. J. Russ,  H. F. Schaefer III,  
 M. W. Schmidt,  N. E. Schultz,  S. Sharma,  N. Shenvi,  C. D. Sherrill,  
 A. C. Simmonett,  A. Sodt,  T. Stein,  D. Stuck,  K. S. Thanthiriwatte,  
 V. Vanovschi,  L. Vogt,  Tao Wang,  A. Warshel,  M. A. Watson,  
 C. F. Williams,  Q. Wu,  X. Xu,  Jun Yang,  W. Zhang,  Yan Zhao

   Please cite Q-Chem as follows:
  "Software for the frontiers of quantum chemistry:
   An overview of developments in the Q-Chem 5 package"
   J. Chem. Phys. 155, 084801 (2021)
   https://doi.org/10.1063/5.0055522 (open access)

 Q-Chem 6.2.2 for Intel X86 EM64T Linux

 Parts of Q-Chem use Armadillo 9.900.5 (Nocturnal Misbehaviour).
 http://arma.sourceforge.net/

 Q-Chem begins on Wed Dec 11 18:18:21 2024  

 Host: compute-0-13.local
0

     Scratch files written to /scratch/keith/1h2o_b3lyp_cc-pvtz//
 Processing $rem in /home/keith/software/qchem/qchem_622/config/preferences:
 Processing $rem in /home/keith/.qchemrc:

 Checking the input file for inconsistencies... 	...done.

--------------------------------------------------------------
User input:
--------------------------------------------------------------

$molecule
   read
$end

$rem
   METHOD            B3LYP
   BASIS             cc-pv5z
   SCF_GUESS         read
   MOM_START         1
   UNRESTRICTED      true
   SYMMETRY          false
   SYMMETRY_IGNORE   true
   CIS_N_ROOTS       1000
   TRNSS             true  ! use truncated subspace for TDDFT
   TRTYPE            3     ! specify occupied orbitals
   N_SOL             1     ! number core holes, specified in $solute section
   nto_pairs         3
   molden_format     true
   print_orbitals    true
   gui               2
   plots             true
   make_cube_files   true
$end
   CORE_IONIZE       1     
   state_analysis    true

$solute
   1
$end

$plots
  natural_transition_orbital 353-390
$end
--------------------------------------------------------------
 ----------------------------------------------------------------
             Standard Nuclear Orientation (Angstroms)
    I     Atom           X                Y                Z
 ----------------------------------------------------------------
    1      O       0.0000000000     0.0000000000     0.1168000000
    2      H       0.0000000000     0.7629000000    -0.4672000000
    3      H       0.0000000000    -0.7629000000    -0.4672000000
 ----------------------------------------------------------------
 Nuclear Repulsion Energy =           9.15940272 hartrees
 There are        5 alpha and        5 beta electrons
 Requested basis set is cc-pV5Z
 There are 51 shells and 201 basis functions

 Total QAlloc Memory Limit   2000 MB
 Mega-Array Size       188 MB
 MEM_STATIC part       192 MB


                       Distance Matrix (Angstroms)
             O (  1)   H (  2)
   H (  2)  0.960767
   H (  3)  0.960767  1.525800

 A cutoff of  1.0D-12 yielded   1326 shell pairs
 There are     20786 function pairs (     36645 Cartesian)
 Smallest overlap matrix eigenvalue = 5.19E-05

 Scale SEOQF with 1.000000e+00/1.000000e+00/1.000000e+00

 Standard Electronic Orientation quadrupole field applied
 Nucleus-field energy     =     0.0000000002 hartrees
 Guess MOs from SCF MO coefficient file

 -----------------------------------------------------------------------
  General SCF calculation program by
  Eric Jon Sundstrom, Paul Horn, Yuezhi Mao, Dmitri Zuev, Alec White,
  David Stuck, Shaama M.S., Shane Yost, Joonho Lee, David Small,
  Daniel Levine, Susi Lehtola, Hugh Burton, Evgeny Epifanovsky,
  Bang C. Huynh
 -----------------------------------------------------------------------
 Exchange:     0.2000 Hartree-Fock + 0.0800 Slater + 0.7200 B88
 Correlation:  0.1900 VWN1RPA + 0.8100 LYP
 Using SG-1 standard quadrature grid
 A unrestricted SCF calculation will be
 performed using DIIS
 SCF converges when DIIS error is below 1.0e-08
 ---------------------------------------
  Cycle       Energy         DIIS error
 ---------------------------------------
Maximum Overlap Method Active
 MOM overlap:    5.0 / 5
Maximum Overlap Method Active
 MOM overlap:    5.0 / 5
    1     -76.4733594766      8.65e-08  
Maximum Overlap Method Active
 MOM overlap:    5.00 / 5
Maximum Overlap Method Active
 MOM overlap:    5.00 / 5
    2     -76.4733594766      1.28e-07  
    3     -76.4733594768      7.07e-09  Convergence criterion met
Maximum Overlap Method Active
 MOM overlap:    5.00 / 5
Maximum Overlap Method Active
 MOM overlap:    5.00 / 5
Maximum Overlap Method Active
 MOM overlap:    5.00 / 5
Maximum Overlap Method Active
 MOM overlap:    5.00 / 5
 ---------------------------------------
 SCF time:   CPU 190.68s  wall 8.00s 
<S^2> =          0.000000000
 SCF   energy =   -76.47335948
 Total energy =   -76.47335948
 MAX_CIS_SUBSPACE fits in available memory
 Direct TDDFT/TDA calculation will be performed
 Exchange:     0.2000 Hartree-Fock + 0.0800 Slater + 0.7200 B88
 Correlation:  0.1900 VWN1RPA + 0.8100 LYP
 Using SG-1 standard quadrature grid
 CIS energy converged when residual is below 10e- 6
   
 ***Using a Restricted Set of Single Excitations***
   
 UCIS calculation
   
 Excitations from core orbitals
 in the presence of a valence hole
 ---------------------------------------------
  Note: orbitals have already been reordered
 ---------------------------------------------
 Total  virtuals used in TDDFT  392 =  196 alpha +  196 beta
 Total occupieds used in TDDFT    2 =    1 alpha +    1 beta
 -------------------------------------------------------------
              Alpha Orbitals in Truncated CIS space
 -------------------------------------------------------------
     1   6   7   8   9  10  11  12  13  14  15  16  17  18  19
    20  21  22  23  24  25  26  27  28  29  30  31  32  33  34
    35  36  37  38  39  40  41  42  43  44  45  46  47  48  49
    50  51  52  53  54  55  56  57  58  59  60  61  62  63  64
    65  66  67  68  69  70  71  72  73  74  75  76  77  78  79
    80  81  82  83  84  85  86  87  88  89  90  91  92  93  94
    95  96  97  98  99 100 101 102 103 104 105 106 107 108 109
   110 111 112 113 114 115 116 117 118 119 120 121 122 123 124
   125 126 127 128 129 130 131 132 133 134 135 136 137 138 139
   140 141 142 143 144 145 146 147 148 149 150 151 152 153 154
   155 156 157 158 159 160 161 162 163 164 165 166 167 168 169
   170 171 172 173 174 175 176 177 178 179 180 181 182 183 184
   185 186 187 188 189 190 191 192 193 194 195 196 197 198 199
   200 201
   
    Number of Occupied Orbitals =    1  out of     5
    Number of Virtual Orbitals  =  196  out of   196
 -------------------------------------------------------------
 -------------------------------------------------------------
              Beta Orbitals in Truncated CIS space
 -------------------------------------------------------------
     1   6   7   8   9  10  11  12  13  14  15  16  17  18  19
    20  21  22  23  24  25  26  27  28  29  30  31  32  33  34
    35  36  37  38  39  40  41  42  43  44  45  46  47  48  49
    50  51  52  53  54  55  56  57  58  59  60  61  62  63  64
    65  66  67  68  69  70  71  72  73  74  75  76  77  78  79
    80  81  82  83  84  85  86  87  88  89  90  91  92  93  94
    95  96  97  98  99 100 101 102 103 104 105 106 107 108 109
   110 111 112 113 114 115 116 117 118 119 120 121 122 123 124
   125 126 127 128 129 130 131 132 133 134 135 136 137 138 139
   140 141 142 143 144 145 146 147 148 149 150 151 152 153 154
   155 156 157 158 159 160 161 162 163 164 165 166 167 168 169
   170 171 172 173 174 175 176 177 178 179 180 181 182 183 184
   185 186 187 188 189 190 191 192 193 194 195 196 197 198 199
   200 201
   
    Number of Occupied Orbitals =    1  out of     5
    Number of Virtual Orbitals  =  196  out of   196
 -------------------------------------------------------------
 Number of Roots adjusted to:         392
 ---------------------------------------------------
 Iter    Rts Conv    Rts Left    Ttl Dev     Max Dev
 ---------------------------------------------------
   1       392           0      0.314057    0.005756    Roots Converged
 ---------------------------------------------------

 ---------------------------------------------------
         TDDFT/TDA Excitation Energies              
 ---------------------------------------------------

 Excited state   1: excitation energy (eV) =     518.2335
 Total energy for state   1:                   -57.42862806 au
    <S**2>     :  2.0000
    Trans. Mom.:  0.0000 X   0.0000 Y   0.0000 Z
    Strength   :     0.0000000000
    D(    1) --> V(    1) amplitude = -0.6954 alpha
    D(    1) --> V(    1) amplitude =  0.6954 beta

 Excited state   2: excitation energy (eV) =     518.8987
 Total energy for state   2:                   -57.40418279 au
    <S**2>     :  0.0000
    Trans. Mom.:  0.0000 X   0.0000 Y   0.0271 Z
    Strength   :     0.0093234587
    D(    1) --> V(    1) amplitude =  0.7045 alpha
    D(    1) --> V(    1) amplitude =  0.7045 beta

 Excited state   3: excitation energy (eV) =     520.0065
 Total energy for state   3:                   -57.36347148 au
    <S**2>     :  2.0000
    Trans. Mom.:  0.0000 X   0.0000 Y   0.0000 Z
    Strength   :     0.0000000000
    D(    1) --> V(    2) amplitude =  0.6849 alpha
    D(    1) --> V(    2) amplitude =  0.6849 beta

 Excited state   4: excitation energy (eV) =     520.5503
 Total energy for state   4:                   -57.34348970 au
    <S**2>     :  0.0000
    Trans. Mom.:  0.0000 X  -0.0411 Y  -0.0000 Z
    Strength   :     0.0215473471
    D(    1) --> V(    2) amplitude =  0.6992 alpha
    D(    1) --> V(    2) amplitude = -0.6992 beta

 Excited state   5: excitation energy (eV) =     524.1254
 Total energy for state   5:                   -57.21210628 au
    <S**2>     :  2.0000
    Trans. Mom.:  0.0000 X   0.0000 Y  -0.0000 Z
    Strength   :     0.0000000000
    D(    1) --> V(    3) amplitude = -0.6544 alpha
    D(    1) --> V(    6) amplitude =  0.2546 alpha
    D(    1) --> V(    3) amplitude =  0.6544 beta
    D(    1) --> V(    6) amplitude = -0.2546 beta

 Excited state   6: excitation energy (eV) =     524.5644
 Total energy for state   6:                   -57.19597455 au
    <S**2>     : -0.0000
    Trans. Mom.: -0.0000 X   0.0000 Y  -0.0297 Z
    Strength   :     0.0113559145
    D(    1) --> V(    3) amplitude =  0.6926 alpha
    D(    1) --> V(    3) amplitude =  0.6926 beta

 Excited state   7: excitation energy (eV) =     524.6459
 Total energy for state   7:                   -57.19297914 au
    <S**2>     :  2.0000
    Trans. Mom.: -0.0000 X  -0.0000 Y  -0.0000 Z
    Strength   :     0.0000000000
    D(    1) --> V(    5) amplitude = -0.7044 alpha
    D(    1) --> V(    5) amplitude =  0.7044 beta

 Excited state   8: excitation energy (eV) =     524.7439
 Total energy for state   8:                   -57.18937745 au
    <S**2>     :  2.0000
    Trans. Mom.:  0.0000 X   0.0000 Y   0.0000 Z
    Strength   :     0.0000000000
    D(    1) --> V(    4) amplitude = -0.6812 alpha
    D(    1) --> V(    4) amplitude =  0.6812 beta

 Excited state   9: excitation energy (eV) =     524.9075
 Total energy for state   9:                   -57.18336325 au
    <S**2>     :  0.0000
    Trans. Mom.: -0.0000 X   0.0225 Y   0.0000 Z
    Strength   :     0.0065330779
    D(    1) --> V(    4) amplitude =  0.6991 alpha
    D(    1) --> V(    4) amplitude =  0.6991 beta

 Excited state  10: excitation energy (eV) =     525.0360
 Total energy for state  10:                   -57.17864236 au
    <S**2>     :  2.0000
    Trans. Mom.: -0.0000 X  -0.0000 Y   0.0000 Z
    Strength   :     0.0000000000
    D(    1) --> V(    3) amplitude = -0.2611 alpha
    D(    1) --> V(    6) amplitude = -0.6436 alpha
    D(    1) --> V(    3) amplitude =  0.2611 beta
    D(    1) --> V(    6) amplitude =  0.6436 beta

 Excited state  11: excitation energy (eV) =     525.2795
 Total energy for state  11:                   -57.16969511 au
    <S**2>     :  0.0000
    Trans. Mom.: -0.0461 X  -0.0000 Y  -0.0000 Z
    Strength   :     0.0274044291
    D(    1) --> V(    5) amplitude =  0.7064 alpha
    D(    1) --> V(    5) amplitude =  0.7064 beta

 Excited state  12: excitation energy (eV) =     525.5562
 Total energy for state  12:                   -57.15952436 au
    <S**2>     :  0.0000
    Trans. Mom.: -0.0000 X  -0.0000 Y   0.0364 Z
    Strength   :     0.0170152379
    D(    1) --> V(    6) amplitude =  0.6903 alpha
    D(    1) --> V(    6) amplitude =  0.6903 beta

 Excited state  13: excitation energy (eV) =     527.4497
 Total energy for state  13:                   -57.08994092 au
    <S**2>     :  2.0000
    Trans. Mom.:  0.0000 X  -0.0000 Y   0.0000 Z
    Strength   :     0.0000000000
    D(    1) --> V(    4) amplitude =  0.1514 alpha
    D(    1) --> V(    7) amplitude =  0.6784 alpha
    D(    1) --> V(    4) amplitude = -0.1514 beta
    D(    1) --> V(    7) amplitude = -0.6784 beta

 Excited state  14: excitation energy (eV) =     528.0003
 Total energy for state  14:                   -57.06970597 au
    <S**2>     :  0.0000
    Trans. Mom.: -0.0000 X  -0.0449 Y   0.0000 Z
    Strength   :     0.0261153460
    D(    1) --> V(    7) amplitude =  0.6988 alpha
    D(    1) --> V(    7) amplitude =  0.6988 beta

 Excited state  15: excitation energy (eV) =     528.5154
 Total energy for state  15:                   -57.05077587 au
    <S**2>     :  2.0000
    Trans. Mom.: -0.0000 X   0.0000 Y  -0.0000 Z
    Strength   :     0.0000000000
    D(    1) --> V(    8) amplitude = -0.7030 alpha
    D(    1) --> V(    8) amplitude =  0.7030 beta

 Excited state  16: excitation energy (eV) =     528.6072
 Total energy for state  16:                   -57.04740255 au
    <S**2>     :  0.0000
    Trans. Mom.:  0.0000 X  -0.0000 Y  -0.0123 Z
    Strength   :     0.0019635763
    D(    1) --> V(    8) amplitude =  0.7058 alpha
    D(    1) --> V(    8) amplitude =  0.7058 beta

 Excited state  17: excitation energy (eV) =     529.9393
 Total energy for state  17:                   -56.99845035 au
    <S**2>     :  2.0000
    Trans. Mom.: -0.0000 X   0.0000 Y  -0.0000 Z
    Strength   :     0.0000000000
    D(    1) --> V(    9) amplitude =  0.7067 alpha
    D(    1) --> V(    9) amplitude =  0.7067 beta

 Excited state  18: excitation energy (eV) =     529.9399
 Total energy for state  18:                   -56.99842833 au
    <S**2>     :  0.0000
    Trans. Mom.:  0.0000 X  -0.0000 Y  -0.0000 Z
    Strength   :     0.0000000000
    D(    1) --> V(    9) amplitude =  0.7067 alpha
    D(    1) --> V(    9) amplitude = -0.7067 beta

 Excited state  19: excitation energy (eV) =     531.2479
 Total energy for state  19:                   -56.95035882 au
    <S**2>     :  2.0000
    Trans. Mom.: -0.0000 X   0.0000 Y  -0.0000 Z
    Strength   :     0.0000000000
    D(    1) --> V(   10) amplitude = -0.7057 alpha
    D(    1) --> V(   10) amplitude =  0.7057 beta

 Excited state  20: excitation energy (eV) =     531.2725
 Total energy for state  20:                   -56.94945593 au
    <S**2>     :  0.0000
    Trans. Mom.: -0.0091 X   0.0000 Y  -0.0000 Z
    Strength   :     0.0010790476
    D(    1) --> V(   10) amplitude =  0.7064 alpha
    D(    1) --> V(   10) amplitude =  0.7064 beta

 Excited state  21: excitation energy (eV) =     532.2265
 Total energy for state  21:                   -56.91439735 au
    <S**2>     :  2.0000
    Trans. Mom.: -0.0000 X   0.0000 Y   0.0000 Z
    Strength   :     0.0000000000
    D(    1) --> V(   11) amplitude =  0.7038 alpha
    D(    1) --> V(   11) amplitude = -0.7038 beta

 Excited state  22: excitation energy (eV) =     532.9407
 Total energy for state  22:                   -56.88814876 au
    <S**2>     :  0.0000
    Trans. Mom.:  0.0000 X   0.0000 Y   0.0048 Z
    Strength   :     0.0003045206
    D(    1) --> V(   11) amplitude =  0.7062 alpha
    D(    1) --> V(   11) amplitude =  0.7062 beta

 Excited state  23: excitation energy (eV) =     536.0392
 Total energy for state  23:                   -56.77428250 au
    <S**2>     :  2.0000
    Trans. Mom.: -0.0000 X  -0.0000 Y  -0.0000 Z
    Strength   :     0.0000000000
    D(    1) --> V(   12) amplitude = -0.7064 alpha
    D(    1) --> V(   12) amplitude =  0.7064 beta

 Excited state  24: excitation energy (eV) =     536.0558
 Total energy for state  24:                   -56.77367124 au
    <S**2>     :  0.0000
    Trans. Mom.: -0.0000 X   0.0074 Y   0.0000 Z
    Strength   :     0.0007118805
    D(    1) --> V(   12) amplitude =  0.7068 alpha
    D(    1) --> V(   12) amplitude =  0.7068 beta

 Excited state  25: excitation energy (eV) =     537.3437
 Total energy for state  25:                   -56.72634409 au
    <S**2>     :  2.0000
    Trans. Mom.:  0.0000 X  -0.0000 Y  -0.0000 Z
    Strength   :     0.0000000000
    D(    1) --> V(   13) amplitude =  0.7058 alpha
    D(    1) --> V(   13) amplitude = -0.7058 beta

 Excited state  26: excitation energy (eV) =     537.4088
 Total energy for state  26:                   -56.72394977 au
    <S**2>     :  0.0000
    Trans. Mom.:  0.0000 X  -0.0000 Y  -0.0139 Z
    Strength   :     0.0025502391
    D(    1) --> V(   13) amplitude =  0.7066 alpha
    D(    1) --> V(   13) amplitude =  0.7066 beta

 Excited state  27: excitation energy (eV) =     538.5352
 Total energy for state  27:                   -56.68255527 au
    <S**2>     :  2.0000
    Trans. Mom.:  0.0000 X  -0.0000 Y   0.0000 Z
    Strength   :     0.0000000000
    D(    1) --> V(   14) amplitude =  0.6996 alpha
    D(    1) --> V(   14) amplitude = -0.6996 beta

 Excited state  28: excitation energy (eV) =     538.5366
 Total energy for state  28:                   -56.68250403 au
    <S**2>     :  0.0000
    Trans. Mom.:  0.0000 X  -0.0004 Y   0.0000 Z
    Strength   :     0.0000024096
    D(    1) --> V(   14) amplitude =  0.6994 alpha
    D(    1) --> V(   14) amplitude =  0.6994 beta

 Excited state  29: excitation energy (eV) =     540.0227
 Total energy for state  29:                   -56.62789287 au
    <S**2>     :  2.0000
    Trans. Mom.:  0.0000 X  -0.0000 Y   0.0000 Z
    Strength   :     0.0000000000
    D(    1) --> V(   15) amplitude =  0.6952 alpha
    D(    1) --> V(   15) amplitude = -0.6952 beta

 Excited state  30: excitation energy (eV) =     540.2978
 Total energy for state  30:                   -56.61778226 au
    <S**2>     :  0.0000
    Trans. Mom.:  0.0000 X  -0.0293 Y   0.0000 Z
    Strength   :     0.0113359524
    D(    1) --> V(   15) amplitude =  0.6985 alpha
    D(    1) --> V(   15) amplitude =  0.6985 beta

 Excited state  31: excitation energy (eV) =     540.4346
 Total energy for state  31:                   -56.61275485 au
    <S**2>     :  2.0000
    Trans. Mom.:  0.0000 X  -0.0000 Y   0.0000 Z
    Strength   :     0.0000000000
    D(    1) --> V(   16) amplitude = -0.7031 alpha
    D(    1) --> V(   16) amplitude =  0.7031 beta

 Excited state  32: excitation energy (eV) =     540.7761
 Total energy for state  32:                   -56.60020392 au
    <S**2>     :  0.0000
    Trans. Mom.:  0.0000 X   0.0000 Y   0.0209 Z
    Strength   :     0.0057793932
    D(    1) --> V(   16) amplitude =  0.7058 alpha
    D(    1) --> V(   16) amplitude =  0.7058 beta

 Excited state  33: excitation energy (eV) =     545.2735
 Total energy for state  33:                   -56.43492788 au
    <S**2>     :  2.0000
    Trans. Mom.: -0.0000 X   0.0000 Y  -0.0000 Z
    Strength   :     0.0000000000
    D(    1) --> V(   17) amplitude = -0.7066 alpha
    D(    1) --> V(   17) amplitude =  0.7066 beta

 Excited state  34: excitation energy (eV) =     545.2773
 Total energy for state  34:                   -56.43478739 au
    <S**2>     :  0.0000
    Trans. Mom.:  0.0000 X   0.0000 Y   0.0000 Z
    Strength   :     0.0000000000
    D(    1) --> V(   17) amplitude =  0.7066 alpha
    D(    1) --> V(   17) amplitude =  0.7066 beta

 Excited state  35: excitation energy (eV) =     545.3261
 Total energy for state  35:                   -56.43299559 au
    <S**2>     :  2.0000
    Trans. Mom.: -0.0000 X  -0.0000 Y   0.0000 Z
    Strength   :     0.0000000000
    D(    1) --> V(   18) amplitude = -0.7064 alpha
    D(    1) --> V(   18) amplitude =  0.7064 beta

 Excited state  36: excitation energy (eV) =     545.3300
 Total energy for state  36:                   -56.43285100 au
    <S**2>     :  0.0000
    Trans. Mom.: -0.0010 X   0.0000 Y  -0.0000 Z
    Strength   :     0.0000137251
    D(    1) --> V(   18) amplitude =  0.7065 alpha
    D(    1) --> V(   18) amplitude =  0.7065 beta

 Excited state  37: excitation energy (eV) =     546.0806
 Total energy for state  37:                   -56.40526753 au
    <S**2>     :  2.0000
    Trans. Mom.:  0.0000 X  -0.0000 Y  -0.0000 Z
    Strength   :     0.0000000000
    D(    1) --> V(   19) amplitude =  0.4263 alpha
    D(    1) --> V(   20) amplitude =  0.5570 alpha
    D(    1) --> V(   19) amplitude = -0.4263 beta
    D(    1) --> V(   20) amplitude = -0.5570 beta

 Excited state  38: excitation energy (eV) =     546.5894
 Total energy for state  38:                   -56.38656953 au
    <S**2>     :  0.0000
    Trans. Mom.:  0.0000 X  -0.0000 Y  -0.0202 Z
    Strength   :     0.0054682381
    D(    1) --> V(   19) amplitude =  0.7063 alpha
    D(    1) --> V(   19) amplitude =  0.7063 beta

 Excited state  39: excitation energy (eV) =     546.6516
 Total energy for state  39:                   -56.38428435 au
    <S**2>     :  2.0000
    Trans. Mom.: -0.0000 X   0.0000 Y   0.0000 Z
    Strength   :     0.0000000000
    D(    1) --> V(   19) amplitude =  0.5620 alpha
    D(    1) --> V(   20) amplitude = -0.4278 alpha
    D(    1) --> V(   19) amplitude = -0.5620 beta
    D(    1) --> V(   20) amplitude =  0.4278 beta

 Excited state  40: excitation energy (eV) =     546.9398
 Total energy for state  40:                   -56.37369227 au
    <S**2>     : -0.0000
    Trans. Mom.: -0.0000 X   0.0000 Y  -0.0447 Z
    Strength   :     0.0267374543
    D(    1) --> V(   20) amplitude =  0.7062 alpha
    D(    1) --> V(   20) amplitude =  0.7062 beta

 Excited state  41: excitation energy (eV) =     549.1920
 Total energy for state  41:                   -56.29092561 au
    <S**2>     :  2.0000
    Trans. Mom.:  0.0000 X   0.0000 Y   0.0000 Z
    Strength   :     0.0000000000
    D(    1) --> V(   21) amplitude = -0.7023 alpha
    D(    1) --> V(   21) amplitude =  0.7023 beta

 Excited state  42: excitation energy (eV) =     549.8799
 Total energy for state  42:                   -56.26564420 au
    <S**2>     :  0.0000
    Trans. Mom.:  0.0000 X   0.0466 Y  -0.0000 Z
    Strength   :     0.0292944691
    D(    1) --> V(   21) amplitude =  0.7063 alpha
    D(    1) --> V(   21) amplitude =  0.7063 beta

 Excited state  43: excitation energy (eV) =     550.1099
 Total energy for state  43:                   -56.25719321 au
    <S**2>     :  2.0000
    Trans. Mom.: -0.0000 X  -0.0000 Y   0.0000 Z
    Strength   :     0.0000000000
    D(    1) --> V(   22) amplitude = -0.6989 alpha
    D(    1) --> V(   22) amplitude =  0.6989 beta

 Excited state  44: excitation energy (eV) =     551.5478
 Total energy for state  44:                   -56.20434999 au
    <S**2>     :  0.0000
    Trans. Mom.: -0.0658 X   0.0000 Y   0.0000 Z
    Strength   :     0.0584952929
    D(    1) --> V(   22) amplitude =  0.7049 alpha
    D(    1) --> V(   22) amplitude =  0.7049 beta

 Excited state  45: excitation energy (eV) =     554.6424
 Total energy for state  45:                   -56.09062576 au
    <S**2>     :  2.0000
    Trans. Mom.: -0.0000 X   0.0000 Y   0.0000 Z
    Strength   :     0.0000000000
    D(    1) --> V(   23) amplitude = -0.7023 alpha
    D(    1) --> V(   23) amplitude =  0.7023 beta

 Excited state  46: excitation energy (eV) =     554.6673
 Total energy for state  46:                   -56.08971311 au
    <S**2>     :  0.0000
    Trans. Mom.: -0.0101 X  -0.0000 Y   0.0000 Z
    Strength   :     0.0013940295
    D(    1) --> V(   23) amplitude =  0.7055 alpha
    D(    1) --> V(   23) amplitude =  0.7055 beta

 Excited state  47: excitation energy (eV) =     557.1550
 Total energy for state  47:                   -55.99829195 au
    <S**2>     :  2.0000
    Trans. Mom.: -0.0000 X   0.0000 Y   0.0000 Z
    Strength   :     0.0000000000
    D(    1) --> V(   24) amplitude =  0.7038 alpha
    D(    1) --> V(   24) amplitude = -0.7038 beta

 Excited state  48: excitation energy (eV) =     557.2833
 Total energy for state  48:                   -55.99357620 au
    <S**2>     :  0.0000
    Trans. Mom.: -0.0000 X   0.0000 Y  -0.0058 Z
    Strength   :     0.0004589705
    D(    1) --> V(   24) amplitude =  0.7066 alpha
    D(    1) --> V(   24) amplitude =  0.7066 beta

 Excited state  49: excitation energy (eV) =     558.5589
 Total energy for state  49:                   -55.94670007 au
    <S**2>     :  2.0000
    Trans. Mom.: -0.0000 X  -0.0000 Y  -0.0000 Z
    Strength   :     0.0000000000
    D(    1) --> V(   26) amplitude =  0.6996 alpha
    D(    1) --> V(   26) amplitude = -0.6996 beta

 Excited state  50: excitation energy (eV) =     559.4950
 Total energy for state  50:                   -55.91229708 au
    <S**2>     :  0.0000
    Trans. Mom.: -0.0000 X  -0.0000 Y  -0.0365 Z
    Strength   :     0.0182640944
    D(    1) --> V(   26) amplitude =  0.7056 alpha
    D(    1) --> V(   26) amplitude =  0.7056 beta

 Excited state  51: excitation energy (eV) =     559.6616
 Total energy for state  51:                   -55.90617375 au
    <S**2>     :  2.0000
    Trans. Mom.: -0.0000 X   0.0000 Y  -0.0000 Z
    Strength   :     0.0000000000
    D(    1) --> V(   25) amplitude =  0.7046 alpha
    D(    1) --> V(   25) amplitude = -0.7046 beta

 Excited state  52: excitation energy (eV) =     559.7608
 Total energy for state  52:                   -55.90252951 au
    <S**2>     : -0.0000
    Trans. Mom.: -0.0000 X   0.0175 Y  -0.0000 Z
    Strength   :     0.0042209787
    D(    1) --> V(   25) amplitude =  0.7065 alpha
    D(    1) --> V(   25) amplitude =  0.7065 beta

 Excited state  53: excitation energy (eV) =     560.0294
 Total energy for state  53:                   -55.89265912 au
    <S**2>     :  2.0000
    Trans. Mom.: -0.0000 X   0.0000 Y  -0.0000 Z
    Strength   :     0.0000000000
    D(    1) --> V(   27) amplitude = -0.7067 alpha
    D(    1) --> V(   27) amplitude =  0.7067 beta

 Excited state  54: excitation energy (eV) =     560.0301
 Total energy for state  54:                   -55.89263378 au
    <S**2>     :  0.0000
    Trans. Mom.:  0.0000 X  -0.0000 Y  -0.0000 Z
    Strength   :     0.0000000000
    D(    1) --> V(   27) amplitude =  0.7067 alpha
    D(    1) --> V(   27) amplitude =  0.7067 beta

 Excited state  55: excitation energy (eV) =     564.2796
 Total energy for state  55:                   -55.73646517 au
    <S**2>     :  2.0000
    Trans. Mom.: -0.0000 X  -0.0000 Y   0.0000 Z
    Strength   :     0.0000000000
    D(    1) --> V(   28) amplitude = -0.7059 alpha
    D(    1) --> V(   28) amplitude =  0.7059 beta

 Excited state  56: excitation energy (eV) =     564.3470
 Total energy for state  56:                   -55.73399092 au
    <S**2>     :  0.0000
    Trans. Mom.: -0.0140 X   0.0000 Y  -0.0000 Z
    Strength   :     0.0027125651
    D(    1) --> V(   28) amplitude =  0.7063 alpha
    D(    1) --> V(   28) amplitude =  0.7063 beta

 Excited state  57: excitation energy (eV) =     564.5897
 Total energy for state  57:                   -55.72506890 au
    <S**2>     :  2.0000
    Trans. Mom.:  0.0000 X  -0.0000 Y  -0.0000 Z
    Strength   :     0.0000000000
    D(    1) --> V(   29) amplitude = -0.7024 alpha
    D(    1) --> V(   29) amplitude =  0.7024 beta

 Excited state  58: excitation energy (eV) =     564.6564
 Total energy for state  58:                   -55.72262074 au
    <S**2>     : -0.0000
    Trans. Mom.: -0.0000 X  -0.0132 Y  -0.0000 Z
    Strength   :     0.0024114634
    D(    1) --> V(   29) amplitude =  0.7066 alpha
    D(    1) --> V(   29) amplitude =  0.7066 beta

 Excited state  59: excitation energy (eV) =     564.6655
 Total energy for state  59:                   -55.72228344 au
    <S**2>     :  2.0000
    Trans. Mom.: -0.0000 X  -0.0000 Y   0.0000 Z
    Strength   :     0.0000000000
    D(    1) --> V(   30) amplitude =  0.7047 alpha
    D(    1) --> V(   30) amplitude = -0.7047 beta

 Excited state  60: excitation energy (eV) =     564.8985
 Total energy for state  60:                   -55.71372222 au
    <S**2>     :  0.0000
    Trans. Mom.: -0.0000 X   0.0000 Y   0.0198 Z
    Strength   :     0.0053990504
    D(    1) --> V(   30) amplitude =  0.7061 alpha
    D(    1) --> V(   30) amplitude =  0.7061 beta

 Excited state  61: excitation energy (eV) =     566.3125
 Total energy for state  61:                   -55.66175864 au
    <S**2>     :  2.0000
    Trans. Mom.: -0.0000 X  -0.0000 Y  -0.0000 Z
    Strength   :     0.0000000000
    D(    1) --> V(   31) amplitude = -0.6991 alpha
    D(    1) --> V(   31) amplitude =  0.6991 beta

 Excited state  62: excitation energy (eV) =     566.6470
 Total energy for state  62:                   -55.64946559 au
    <S**2>     :  0.0000
    Trans. Mom.: -0.0000 X  -0.0327 Y   0.0000 Z
    Strength   :     0.0148315184
    D(    1) --> V(   31) amplitude =  0.7053 alpha
    D(    1) --> V(   31) amplitude =  0.7053 beta

 Excited state  63: excitation energy (eV) =     566.8762
 Total energy for state  63:                   -55.64104163 au
    <S**2>     :  2.0000
    Trans. Mom.:  0.0000 X  -0.0000 Y   0.0000 Z
    Strength   :     0.0000000000
    D(    1) --> V(   32) amplitude =  0.7070 alpha
    D(    1) --> V(   32) amplitude = -0.7070 beta

 Excited state  64: excitation energy (eV) =     566.8765
 Total energy for state  64:                   -55.64103253 au
    <S**2>     :  0.0000
    Trans. Mom.: -0.0000 X   0.0000 Y   0.0000 Z
    Strength   :     0.0000000000
    D(    1) --> V(   32) amplitude =  0.7070 alpha
    D(    1) --> V(   32) amplitude =  0.7070 beta

 Excited state  65: excitation energy (eV) =     567.3450
 Total energy for state  65:                   -55.62381378 au
    <S**2>     :  2.0000
    Trans. Mom.: -0.0000 X   0.0000 Y  -0.0000 Z
    Strength   :     0.0000000000
    D(    1) --> V(   33) amplitude = -0.7041 alpha
    D(    1) --> V(   33) amplitude =  0.7041 beta

 Excited state  66: excitation energy (eV) =     567.7761
 Total energy for state  66:                   -55.60797401 au
    <S**2>     : -0.0000
    Trans. Mom.:  0.0000 X  -0.0000 Y  -0.0033 Z
    Strength   :     0.0001503204
    D(    1) --> V(   33) amplitude =  0.7066 alpha
    D(    1) --> V(   33) amplitude =  0.7066 beta

 Excited state  67: excitation energy (eV) =     570.0383
 Total energy for state  67:                   -55.52483748 au
    <S**2>     :  2.0000
    Trans. Mom.:  0.0000 X  -0.0000 Y   0.0000 Z
    Strength   :     0.0000000000
    D(    1) --> V(   34) amplitude =  0.7055 alpha
    D(    1) --> V(   34) amplitude = -0.7055 beta

 Excited state  68: excitation energy (eV) =     570.0433
 Total energy for state  68:                   -55.52465493 au
    <S**2>     :  0.0000
    Trans. Mom.: -0.0000 X  -0.0005 Y  -0.0000 Z
    Strength   :     0.0000038735
    D(    1) --> V(   34) amplitude =  0.7056 alpha
    D(    1) --> V(   34) amplitude =  0.7056 beta

 Excited state  69: excitation energy (eV) =     572.4697
 Total energy for state  69:                   -55.43548705 au
    <S**2>     :  2.0000
    Trans. Mom.: -0.0000 X  -0.0000 Y  -0.0000 Z
    Strength   :     0.0000000000
    D(    1) --> V(   35) amplitude = -0.7063 alpha
    D(    1) --> V(   35) amplitude =  0.7063 beta

 Excited state  70: excitation energy (eV) =     572.4757
 Total energy for state  70:                   -55.43526655 au
    <S**2>     :  0.0000
    Trans. Mom.:  0.0000 X  -0.0000 Y  -0.0000 Z
    Strength   :     0.0000000000
    D(    1) --> V(   35) amplitude =  0.7063 alpha
    D(    1) --> V(   35) amplitude =  0.7063 beta

 Excited state  71: excitation energy (eV) =     572.5265
 Total energy for state  71:                   -55.43339937 au
    <S**2>     :  2.0000
    Trans. Mom.:  0.0000 X  -0.0000 Y  -0.0000 Z
    Strength   :     0.0000000000
    D(    1) --> V(   36) amplitude = -0.7061 alpha
    D(    1) --> V(   36) amplitude =  0.7061 beta

 Excited state  72: excitation energy (eV) =     572.6153
 Total energy for state  72:                   -55.43013644 au
    <S**2>     :  0.0000
    Trans. Mom.:  0.0154 X  -0.0000 Y  -0.0000 Z
    Strength   :     0.0033413970
    D(    1) --> V(   36) amplitude =  0.7062 alpha
    D(    1) --> V(   36) amplitude =  0.7062 beta

 Excited state  73: excitation energy (eV) =     577.0552
 Total energy for state  73:                   -55.26697158 au
    <S**2>     :  2.0000
    Trans. Mom.: -0.0000 X   0.0000 Y  -0.0000 Z
    Strength   :     0.0000000000
    D(    1) --> V(   37) amplitude = -0.7063 alpha
    D(    1) --> V(   37) amplitude =  0.7063 beta

 Excited state  74: excitation energy (eV) =     577.0862
 Total energy for state  74:                   -55.26583416 au
    <S**2>     :  0.0000
    Trans. Mom.:  0.0000 X   0.0000 Y  -0.0042 Z
    Strength   :     0.0002524863
    D(    1) --> V(   37) amplitude =  0.7066 alpha
    D(    1) --> V(   37) amplitude =  0.7066 beta

 Excited state  75: excitation energy (eV) =     579.3396
 Total energy for state  75:                   -55.18302172 au
    <S**2>     :  2.0000
    Trans. Mom.: -0.0000 X   0.0000 Y   0.0000 Z
    Strength   :     0.0000000000
    D(    1) --> V(   38) amplitude =  0.7041 alpha
    D(    1) --> V(   38) amplitude = -0.7041 beta

 Excited state  76: excitation energy (eV) =     579.5581
 Total energy for state  76:                   -55.17499292 au
    <S**2>     :  0.0000
    Trans. Mom.: -0.0000 X   0.0236 Y   0.0000 Z
    Strength   :     0.0078907097
    D(    1) --> V(   38) amplitude =  0.7059 alpha
    D(    1) --> V(   38) amplitude =  0.7059 beta

 Excited state  77: excitation energy (eV) =     580.5684
 Total energy for state  77:                   -55.13786469 au
    <S**2>     :  2.0000
    Trans. Mom.:  0.0000 X   0.0000 Y   0.0000 Z
    Strength   :     0.0000000000
    D(    1) --> V(   39) amplitude = -0.7027 alpha
    D(    1) --> V(   39) amplitude =  0.7027 beta

 Excited state  78: excitation energy (eV) =     580.9072
 Total energy for state  78:                   -55.12541515 au
    <S**2>     : -0.0000
    Trans. Mom.: -0.0000 X   0.0000 Y   0.0066 Z
    Strength   :     0.0006136760
    D(    1) --> V(   39) amplitude =  0.7054 alpha
    D(    1) --> V(   39) amplitude =  0.7054 beta

 Excited state  79: excitation energy (eV) =     583.3262
 Total energy for state  79:                   -55.03651868 au
    <S**2>     :  2.0000
    Trans. Mom.:  0.0000 X  -0.0000 Y  -0.0000 Z
    Strength   :     0.0000000000
    D(    1) --> V(   40) amplitude =  0.7021 alpha
    D(    1) --> V(   40) amplitude = -0.7021 beta

 Excited state  80: excitation energy (eV) =     584.4379
 Total energy for state  80:                   -54.99566243 au
    <S**2>     :  2.0000
    Trans. Mom.:  0.0000 X  -0.0000 Y   0.0000 Z
    Strength   :     0.0000000000
    D(    1) --> V(   41) amplitude = -0.7049 alpha
    D(    1) --> V(   41) amplitude =  0.7049 beta

 Excited state  81: excitation energy (eV) =     584.4578
 Total energy for state  81:                   -54.99493009 au
    <S**2>     :  0.0000
    Trans. Mom.:  0.0000 X  -0.0000 Y  -0.0263 Z
    Strength   :     0.0099174639
    D(    1) --> V(   40) amplitude =  0.7046 alpha
    D(    1) --> V(   40) amplitude =  0.7046 beta

 Excited state  82: excitation energy (eV) =     584.5659
 Total energy for state  82:                   -54.99095955 au
    <S**2>     : -0.0000
    Trans. Mom.:  0.0000 X  -0.0188 Y   0.0000 Z
    Strength   :     0.0050390971
    D(    1) --> V(   41) amplitude =  0.7064 alpha
    D(    1) --> V(   41) amplitude =  0.7064 beta

 Excited state  83: excitation energy (eV) =     588.3666
 Total energy for state  83:                   -54.85128454 au
    <S**2>     :  2.0000
    Trans. Mom.:  0.0000 X  -0.0000 Y  -0.0000 Z
    Strength   :     0.0000000000
    D(    1) --> V(   42) amplitude = -0.7066 alpha
    D(    1) --> V(   42) amplitude =  0.7066 beta

 Excited state  84: excitation energy (eV) =     588.3876
 Total energy for state  84:                   -54.85051235 au
    <S**2>     :  0.0000
    Trans. Mom.:  0.0000 X   0.0000 Y   0.0000 Z
    Strength   :     0.0000000000
    D(    1) --> V(   42) amplitude =  0.7066 alpha
    D(    1) --> V(   42) amplitude =  0.7066 beta

 Excited state  85: excitation energy (eV) =     588.7417
 Total energy for state  85:                   -54.83750197 au
    <S**2>     :  2.0000
    Trans. Mom.:  0.0000 X  -0.0000 Y  -0.0000 Z
    Strength   :     0.0000000000
    D(    1) --> V(   43) amplitude = -0.7035 alpha
    D(    1) --> V(   43) amplitude =  0.7035 beta

 Excited state  86: excitation energy (eV) =     588.8290
 Total energy for state  86:                   -54.83429227 au
    <S**2>     :  0.0000
    Trans. Mom.:  0.0124 X   0.0000 Y   0.0000 Z
    Strength   :     0.0022092458
    D(    1) --> V(   43) amplitude =  0.7046 alpha
    D(    1) --> V(   43) amplitude =  0.7046 beta

 Excited state  87: excitation energy (eV) =     590.6971
 Total energy for state  87:                   -54.76564096 au
    <S**2>     :  2.0000
    Trans. Mom.: -0.0000 X   0.0000 Y   0.0000 Z
    Strength   :     0.0000000000
    D(    1) --> V(   44) amplitude =  0.7064 alpha
    D(    1) --> V(   44) amplitude = -0.7064 beta

 Excited state  88: excitation energy (eV) =     590.7324
 Total energy for state  88:                   -54.76434413 au
    <S**2>     :  0.0000
    Trans. Mom.: -0.0000 X  -0.0000 Y   0.0070 Z
    Strength   :     0.0007074920
    D(    1) --> V(   44) amplitude =  0.7066 alpha
    D(    1) --> V(   44) amplitude =  0.7066 beta

 Excited state  89: excitation energy (eV) =     591.7096
 Total energy for state  89:                   -54.72843419 au
    <S**2>     :  2.0000
    Trans. Mom.: -0.0000 X   0.0000 Y  -0.0000 Z
    Strength   :     0.0000000000
    D(    1) --> V(   45) amplitude = -0.7038 alpha
    D(    1) --> V(   45) amplitude =  0.7038 beta

 Excited state  90: excitation energy (eV) =     591.7408
 Total energy for state  90:                   -54.72728483 au
    <S**2>     :  0.0000
    Trans. Mom.: -0.0077 X  -0.0000 Y  -0.0000 Z
    Strength   :     0.0008667352
    D(    1) --> V(   45) amplitude =  0.7048 alpha
    D(    1) --> V(   45) amplitude =  0.7048 beta

 Excited state  91: excitation energy (eV) =     595.3103
 Total energy for state  91:                   -54.59611083 au
    <S**2>     :  2.0000
    Trans. Mom.: -0.0000 X   0.0000 Y  -0.0000 Z
    Strength   :     0.0000000000
    D(    1) --> V(   46) amplitude = -0.7052 alpha
    D(    1) --> V(   46) amplitude =  0.7052 beta

 Excited state  92: excitation energy (eV) =     595.4468
 Total energy for state  92:                   -54.59109367 au
    <S**2>     :  0.0000
    Trans. Mom.: -0.0000 X   0.0182 Y   0.0000 Z
    Strength   :     0.0048302081
    D(    1) --> V(   46) amplitude =  0.7065 alpha
    D(    1) --> V(   46) amplitude =  0.7065 beta

 Excited state  93: excitation energy (eV) =     595.7334
 Total energy for state  93:                   -54.58056016 au
    <S**2>     :  2.0000
    Trans. Mom.:  0.0000 X  -0.0000 Y   0.0000 Z
    Strength   :     0.0000000000
    D(    1) --> V(   47) amplitude =  0.7053 alpha
    D(    1) --> V(   47) amplitude = -0.7053 beta

 Excited state  94: excitation energy (eV) =     596.1459
 Total energy for state  94:                   -54.56540098 au
    <S**2>     :  0.0000
    Trans. Mom.:  0.0000 X  -0.0000 Y   0.0136 Z
    Strength   :     0.0027060442
    D(    1) --> V(   47) amplitude =  0.7052 alpha
    D(    1) --> V(   47) amplitude =  0.7052 beta

 Excited state  95: excitation energy (eV) =     599.8194
 Total energy for state  95:                   -54.43040224 au
    <S**2>     :  2.0000
    Trans. Mom.:  0.0000 X  -0.0000 Y  -0.0000 Z
    Strength   :     0.0000000000
    D(    1) --> V(   48) amplitude = -0.7052 alpha
    D(    1) --> V(   48) amplitude =  0.7052 beta

 Excited state  96: excitation energy (eV) =     599.9591
 Total energy for state  96:                   -54.42527063 au
    <S**2>     : -0.0000
    Trans. Mom.:  0.0000 X  -0.0179 Y  -0.0000 Z
    Strength   :     0.0046951010
    D(    1) --> V(   48) amplitude =  0.7067 alpha
    D(    1) --> V(   48) amplitude =  0.7067 beta

 Excited state  97: excitation energy (eV) =     603.5055
 Total energy for state  97:                   -54.29494281 au
    <S**2>     :  2.0000
    Trans. Mom.:  0.0000 X  -0.0000 Y  -0.0000 Z
    Strength   :     0.0000000000
    D(    1) --> V(   49) amplitude = -0.7038 alpha
    D(    1) --> V(   49) amplitude =  0.7038 beta

 Excited state  98: excitation energy (eV) =     603.7552
 Total energy for state  98:                   -54.28576520 au
    <S**2>     :  0.0000
    Trans. Mom.:  0.0223 X  -0.0000 Y  -0.0000 Z
    Strength   :     0.0073385336
    D(    1) --> V(   49) amplitude =  0.7053 alpha
    D(    1) --> V(   49) amplitude =  0.7053 beta

 Excited state  99: excitation energy (eV) =     606.2811
 Total energy for state  99:                   -54.19294019 au
    <S**2>     :  2.0000
    Trans. Mom.:  0.0000 X  -0.0000 Y  -0.0000 Z
    Strength   :     0.0000000000
    D(    1) --> V(   50) amplitude =  0.6965 alpha
    D(    1) --> V(   50) amplitude = -0.6965 beta

 Excited state 100: excitation energy (eV) =     606.6888
 Total energy for state 100:                   -54.17795687 au
    <S**2>     :  0.0000
    Trans. Mom.: -0.0000 X  -0.0000 Y  -0.0240 Z
    Strength   :     0.0085527987
    D(    1) --> V(   50) amplitude =  0.7037 alpha
    D(    1) --> V(   50) amplitude =  0.7037 beta

 Excited state 101: excitation energy (eV) =     609.1546
 Total energy for state 101:                   -54.08734065 au
    <S**2>     :  2.0000
    Trans. Mom.:  0.0000 X  -0.0000 Y  -0.0000 Z
    Strength   :     0.0000000000
    D(    1) --> V(   51) amplitude = -0.7023 alpha
    D(    1) --> V(   51) amplitude =  0.7023 beta

 Excited state 102: excitation energy (eV) =     609.7234
 Total energy for state 102:                   -54.06643855 au
    <S**2>     :  0.0000
    Trans. Mom.: -0.0000 X  -0.0000 Y  -0.0183 Z
    Strength   :     0.0049847041
    D(    1) --> V(   51) amplitude =  0.7026 alpha
    D(    1) --> V(   51) amplitude =  0.7026 beta

 Excited state 103: excitation energy (eV) =     611.1656
 Total energy for state 103:                   -54.01343866 au
    <S**2>     :  2.0000
    Trans. Mom.: -0.0000 X   0.0000 Y  -0.0000 Z
    Strength   :     0.0000000000
    D(    1) --> V(   52) amplitude = -0.7064 alpha
    D(    1) --> V(   52) amplitude =  0.7064 beta

 Excited state 104: excitation energy (eV) =     611.2002
 Total energy for state 104:                   -54.01216813 au
    <S**2>     :  0.0000
    Trans. Mom.: -0.0000 X   0.0000 Y   0.0000 Z
    Strength   :     0.0000000000
    D(    1) --> V(   52) amplitude =  0.7065 alpha
    D(    1) --> V(   52) amplitude =  0.7065 beta

 Excited state 105: excitation energy (eV) =     611.9072
 Total energy for state 105:                   -53.98618377 au
    <S**2>     :  2.0000
    Trans. Mom.:  0.0000 X  -0.0000 Y  -0.0000 Z
    Strength   :     0.0000000000
    D(    1) --> V(   55) amplitude =  0.6944 alpha
    D(    1) --> V(   55) amplitude = -0.6944 beta

 Excited state 106: excitation energy (eV) =     612.0315
 Total energy for state 106:                   -53.98161537 au
    <S**2>     :  2.0000
    Trans. Mom.:  0.0000 X   0.0000 Y   0.0000 Z
    Strength   :     0.0000000000
    D(    1) --> V(   53) amplitude = -0.7039 alpha
    D(    1) --> V(   53) amplitude =  0.7039 beta

 Excited state 107: excitation energy (eV) =     612.1726
 Total energy for state 107:                   -53.97643017 au
    <S**2>     :  0.0000
    Trans. Mom.:  0.0164 X  -0.0000 Y   0.0000 Z
    Strength   :     0.0040288201
    D(    1) --> V(   53) amplitude =  0.7059 alpha
    D(    1) --> V(   53) amplitude =  0.7059 beta

 Excited state 108: excitation energy (eV) =     612.1731
 Total energy for state 108:                   -53.97641202 au
    <S**2>     :  2.0000
    Trans. Mom.: -0.0000 X   0.0000 Y  -0.0000 Z
    Strength   :     0.0000000000
    D(    1) --> V(   54) amplitude = -0.7031 alpha
    D(    1) --> V(   54) amplitude =  0.7031 beta

 Excited state 109: excitation energy (eV) =     613.0791
 Total energy for state 109:                   -53.94311846 au
    <S**2>     :  0.0000
    Trans. Mom.:  0.0000 X   0.0432 Y   0.0000 Z
    Strength   :     0.0280729237
    D(    1) --> V(   54) amplitude =  0.7069 alpha
    D(    1) --> V(   54) amplitude =  0.7069 beta

 Excited state 110: excitation energy (eV) =     613.3534
 Total energy for state 110:                   -53.93303887 au
    <S**2>     :  0.0000
    Trans. Mom.:  0.0000 X   0.0000 Y  -0.0505 Z
    Strength   :     0.0383566502
    D(    1) --> V(   55) amplitude =  0.7048 alpha
    D(    1) --> V(   55) amplitude =  0.7048 beta

 Excited state 111: excitation energy (eV) =     619.8733
 Total energy for state 111:                   -53.69343585 au
    <S**2>     :  2.0000
    Trans. Mom.: -0.0000 X   0.0000 Y  -0.0000 Z
    Strength   :     0.0000000000
    D(    1) --> V(   56) amplitude =  0.6969 alpha
    D(    1) --> V(   56) amplitude = -0.6969 beta

 Excited state 112: excitation energy (eV) =     620.2340
 Total energy for state 112:                   -53.68017916 au
    <S**2>     :  0.0000
    Trans. Mom.:  0.0000 X   0.0285 Y  -0.0000 Z
    Strength   :     0.0123088016
    D(    1) --> V(   56) amplitude =  0.7017 alpha
    D(    1) --> V(   56) amplitude =  0.7017 beta

 Excited state 113: excitation energy (eV) =     621.3458
 Total energy for state 113:                   -53.63932140 au
    <S**2>     :  2.0000
    Trans. Mom.: -0.0000 X   0.0000 Y  -0.0000 Z
    Strength   :     0.0000000000
    D(    1) --> V(   57) amplitude = -0.7069 alpha
    D(    1) --> V(   57) amplitude =  0.7069 beta

 Excited state 114: excitation energy (eV) =     621.3478
 Total energy for state 114:                   -53.63924838 au
    <S**2>     :  0.0000
    Trans. Mom.: -0.0000 X  -0.0000 Y  -0.0000 Z
    Strength   :     0.0000000000
    D(    1) --> V(   57) amplitude =  0.7069 alpha
    D(    1) --> V(   57) amplitude =  0.7069 beta

 Excited state 115: excitation energy (eV) =     624.3477
 Total energy for state 115:                   -53.52900518 au
    <S**2>     :  2.0000
    Trans. Mom.:  0.0000 X  -0.0000 Y  -0.0000 Z
    Strength   :     0.0000000000
    D(    1) --> V(   60) amplitude = -0.7018 alpha
    D(    1) --> V(   60) amplitude =  0.7018 beta

 Excited state 116: excitation energy (eV) =     624.3813
 Total energy for state 116:                   -53.52776932 au
    <S**2>     :  2.0000
    Trans. Mom.: -0.0000 X  -0.0000 Y   0.0000 Z
    Strength   :     0.0000000000
    D(    1) --> V(   58) amplitude = -0.6994 alpha
    D(    1) --> V(   58) amplitude =  0.6994 beta

 Excited state 117: excitation energy (eV) =     624.4182
 Total energy for state 117:                   -53.52641502 au
    <S**2>     :  0.0000
    Trans. Mom.:  0.0000 X  -0.0090 Y  -0.0000 Z
    Strength   :     0.0012476174
    D(    1) --> V(   58) amplitude =  0.7020 alpha
    D(    1) --> V(   58) amplitude =  0.7020 beta

 Excited state 118: excitation energy (eV) =     625.7851
 Total energy for state 118:                   -53.47618299 au
    <S**2>     :  2.0000
    Trans. Mom.: -0.0000 X   0.0000 Y   0.0000 Z
    Strength   :     0.0000000000
    D(    1) --> V(   59) amplitude = -0.7041 alpha
    D(    1) --> V(   59) amplitude =  0.7041 beta

 Excited state 119: excitation energy (eV) =     626.3724
 Total energy for state 119:                   -53.45459841 au
    <S**2>     :  0.0000
    Trans. Mom.:  0.0000 X  -0.0000 Y   0.0207 Z
    Strength   :     0.0065643770
    D(    1) --> V(   59) amplitude =  0.7066 alpha
    D(    1) --> V(   59) amplitude =  0.7066 beta

 Excited state 120: excitation energy (eV) =     626.6260
 Total energy for state 120:                   -53.44527999 au
    <S**2>     :  0.0000
    Trans. Mom.:  0.0716 X  -0.0000 Y   0.0000 Z
    Strength   :     0.0786385945
    D(    1) --> V(   60) amplitude =  0.7066 alpha
    D(    1) --> V(   60) amplitude =  0.7066 beta

 Excited state 121: excitation energy (eV) =     634.3576
 Total energy for state 121:                   -53.16114748 au
    <S**2>     :  2.0000
    Trans. Mom.:  0.0000 X   0.0000 Y  -0.0000 Z
    Strength   :     0.0000000000
    D(    1) --> V(   61) amplitude = -0.7064 alpha
    D(    1) --> V(   61) amplitude =  0.7064 beta

 Excited state 122: excitation energy (eV) =     634.3680
 Total energy for state 122:                   -53.16076381 au
    <S**2>     :  0.0000
    Trans. Mom.:  0.0000 X   0.0000 Y  -0.0010 Z
    Strength   :     0.0000169382
    D(    1) --> V(   61) amplitude =  0.7064 alpha
    D(    1) --> V(   61) amplitude =  0.7064 beta

 Excited state 123: excitation energy (eV) =     637.3780
 Total energy for state 123:                   -53.05014968 au
    <S**2>     :  2.0000
    Trans. Mom.:  0.0000 X  -0.0000 Y   0.0000 Z
    Strength   :     0.0000000000
    D(    1) --> V(   62) amplitude =  0.7051 alpha
    D(    1) --> V(   62) amplitude =  0.7051 beta

 Excited state 124: excitation energy (eV) =     637.7698
 Total energy for state 124:                   -53.03575106 au
    <S**2>     : -0.0000
    Trans. Mom.: -0.0000 X  -0.0000 Y  -0.0217 Z
    Strength   :     0.0073348981
    D(    1) --> V(   62) amplitude = -0.7066 alpha
    D(    1) --> V(   62) amplitude =  0.7066 beta

 Excited state 125: excitation energy (eV) =     637.9803
 Total energy for state 125:                   -53.02801669 au
    <S**2>     :  2.0000
    Trans. Mom.:  0.0000 X   0.0000 Y   0.0000 Z
    Strength   :     0.0000000000
    D(    1) --> V(   63) amplitude = -0.7050 alpha
    D(    1) --> V(   63) amplitude =  0.7050 beta

 Excited state 126: excitation energy (eV) =     637.9849
 Total energy for state 126:                   -53.02784798 au
    <S**2>     :  0.0000
    Trans. Mom.: -0.0000 X  -0.0000 Y   0.0000 Z
    Strength   :     0.0000000000
    D(    1) --> V(   63) amplitude =  0.7050 alpha
    D(    1) --> V(   63) amplitude =  0.7050 beta

 Excited state 127: excitation energy (eV) =     638.3941
 Total energy for state 127:                   -53.01280816 au
    <S**2>     :  2.0000
    Trans. Mom.: -0.0000 X   0.0000 Y   0.0000 Z
    Strength   :     0.0000000000
    D(    1) --> V(   64) amplitude =  0.7055 alpha
    D(    1) --> V(   64) amplitude = -0.7055 beta

 Excited state 128: excitation energy (eV) =     638.5541
 Total energy for state 128:                   -53.00692731 au
    <S**2>     :  0.0000
    Trans. Mom.:  0.0000 X   0.0188 Y  -0.0000 Z
    Strength   :     0.0055284169
    D(    1) --> V(   64) amplitude =  0.7061 alpha
    D(    1) --> V(   64) amplitude =  0.7061 beta

 Excited state 129: excitation energy (eV) =     639.2948
 Total energy for state 129:                   -52.97970787 au
    <S**2>     :  2.0000
    Trans. Mom.: -0.0000 X  -0.0000 Y  -0.0000 Z
    Strength   :     0.0000000000
    D(    1) --> V(   65) amplitude = -0.7068 alpha
    D(    1) --> V(   65) amplitude =  0.7068 beta

 Excited state 130: excitation energy (eV) =     639.3053
 Total energy for state 130:                   -52.97932227 au
    <S**2>     :  0.0000
    Trans. Mom.: -0.0049 X   0.0000 Y   0.0000 Z
    Strength   :     0.0003709106
    D(    1) --> V(   65) amplitude =  0.7070 alpha
    D(    1) --> V(   65) amplitude =  0.7070 beta

 Excited state 131: excitation energy (eV) =     640.9531
 Total energy for state 131:                   -52.91876613 au
    <S**2>     :  2.0000
    Trans. Mom.:  0.0000 X  -0.0000 Y   0.0000 Z
    Strength   :     0.0000000000
    D(    1) --> V(   66) amplitude = -0.7050 alpha
    D(    1) --> V(   66) amplitude =  0.7050 beta

 Excited state 132: excitation energy (eV) =     640.9559
 Total energy for state 132:                   -52.91866339 au
    <S**2>     :  0.0000
    Trans. Mom.:  0.0000 X   0.0000 Y  -0.0000 Z
    Strength   :     0.0000000000
    D(    1) --> V(   66) amplitude =  0.7050 alpha
    D(    1) --> V(   66) amplitude =  0.7050 beta

 Excited state 133: excitation energy (eV) =     641.7569
 Total energy for state 133:                   -52.88922795 au
    <S**2>     :  2.0000
    Trans. Mom.: -0.0000 X   0.0000 Y  -0.0000 Z
    Strength   :     0.0000000000
    D(    1) --> V(   67) amplitude = -0.7056 alpha
    D(    1) --> V(   67) amplitude =  0.7056 beta

 Excited state 134: excitation energy (eV) =     641.7701
 Total energy for state 134:                   -52.88874266 au
    <S**2>     :  0.0000
    Trans. Mom.: -0.0000 X   0.0015 Y   0.0000 Z
    Strength   :     0.0000352317
    D(    1) --> V(   67) amplitude =  0.7056 alpha
    D(    1) --> V(   67) amplitude =  0.7056 beta

 Excited state 135: excitation energy (eV) =     642.5694
 Total energy for state 135:                   -52.85936967 au
    <S**2>     :  2.0000
    Trans. Mom.:  0.0000 X   0.0000 Y  -0.0000 Z
    Strength   :     0.0000000000
    D(    1) --> V(   68) amplitude = -0.7055 alpha
    D(    1) --> V(   68) amplitude =  0.7055 beta

 Excited state 136: excitation energy (eV) =     642.8924
 Total energy for state 136:                   -52.84749776 au
    <S**2>     :  0.0000
    Trans. Mom.:  0.0000 X   0.0000 Y  -0.0105 Z
    Strength   :     0.0017419790
    D(    1) --> V(   68) amplitude =  0.7064 alpha
    D(    1) --> V(   68) amplitude =  0.7064 beta

 Excited state 137: excitation energy (eV) =     645.7740
 Total energy for state 137:                   -52.74160414 au
    <S**2>     :  2.0000
    Trans. Mom.:  0.0000 X   0.0000 Y   0.0000 Z
    Strength   :     0.0000000000
    D(    1) --> V(   69) amplitude = -0.7058 alpha
    D(    1) --> V(   69) amplitude =  0.7058 beta

 Excited state 138: excitation energy (eV) =     645.8369
 Total energy for state 138:                   -52.73929294 au
    <S**2>     :  0.0000
    Trans. Mom.:  0.0098 X  -0.0000 Y   0.0000 Z
    Strength   :     0.0015092790
    D(    1) --> V(   69) amplitude =  0.6967 alpha
    D(    1) --> V(   69) amplitude =  0.6967 beta

 Excited state 139: excitation energy (eV) =     646.1845
 Total energy for state 139:                   -52.72651785 au
    <S**2>     :  2.0000
    Trans. Mom.:  0.0000 X   0.0000 Y  -0.0000 Z
    Strength   :     0.0000000000
    D(    1) --> V(   70) amplitude = -0.7059 alpha
    D(    1) --> V(   70) amplitude =  0.7059 beta

 Excited state 140: excitation energy (eV) =     646.2920
 Total energy for state 140:                   -52.72256599 au
    <S**2>     :  0.0000
    Trans. Mom.:  0.0000 X   0.0143 Y  -0.0000 Z
    Strength   :     0.0032253213
    D(    1) --> V(   70) amplitude =  0.7063 alpha
    D(    1) --> V(   70) amplitude =  0.7063 beta

 Excited state 141: excitation energy (eV) =     646.8855
 Total energy for state 141:                   -52.70075511 au
    <S**2>     :  2.0000
    Trans. Mom.:  0.0000 X  -0.0000 Y   0.0000 Z
    Strength   :     0.0000000000
    D(    1) --> V(   71) amplitude = -0.7039 alpha
    D(    1) --> V(   71) amplitude =  0.7039 beta

 Excited state 142: excitation energy (eV) =     647.4390
 Total energy for state 142:                   -52.68041475 au
    <S**2>     :  0.0000
    Trans. Mom.:  0.0373 X   0.0000 Y  -0.0000 Z
    Strength   :     0.0221068106
    D(    1) --> V(   71) amplitude =  0.6966 alpha
    D(    1) --> V(   71) amplitude =  0.6966 beta

 Excited state 143: excitation energy (eV) =     649.9222
 Total energy for state 143:                   -52.58916053 au
    <S**2>     :  2.0000
    Trans. Mom.: -0.0000 X   0.0000 Y  -0.0000 Z
    Strength   :     0.0000000000
    D(    1) --> V(   72) amplitude = -0.7069 alpha
    D(    1) --> V(   72) amplitude =  0.7069 beta

 Excited state 144: excitation energy (eV) =     649.9223
 Total energy for state 144:                   -52.58915491 au
    <S**2>     :  0.0000
    Trans. Mom.:  0.0000 X  -0.0000 Y  -0.0000 Z
    Strength   :     0.0000000000
    D(    1) --> V(   72) amplitude =  0.7069 alpha
    D(    1) --> V(   72) amplitude =  0.7069 beta

 Excited state 145: excitation energy (eV) =     651.1066
 Total energy for state 145:                   -52.54563244 au
    <S**2>     :  2.0000
    Trans. Mom.: -0.0000 X  -0.0000 Y   0.0000 Z
    Strength   :     0.0000000000
    D(    1) --> V(   73) amplitude = -0.7007 alpha
    D(    1) --> V(   73) amplitude =  0.7007 beta

 Excited state 146: excitation energy (eV) =     651.6958
 Total energy for state 146:                   -52.52397904 au
    <S**2>     :  0.0000
    Trans. Mom.:  0.0000 X  -0.0342 Y  -0.0000 Z
    Strength   :     0.0186567289
    D(    1) --> V(   73) amplitude =  0.7057 alpha
    D(    1) --> V(   73) amplitude =  0.7057 beta

 Excited state 147: excitation energy (eV) =     655.2925
 Total energy for state 147:                   -52.39180417 au
    <S**2>     :  2.0000
    Trans. Mom.:  0.0000 X   0.0000 Y  -0.0000 Z
    Strength   :     0.0000000000
    D(    1) --> V(   74) amplitude =  0.7064 alpha
    D(    1) --> V(   74) amplitude = -0.7064 beta

 Excited state 148: excitation energy (eV) =     655.3867
 Total energy for state 148:                   -52.38834418 au
    <S**2>     :  0.0000
    Trans. Mom.:  0.0000 X  -0.0000 Y  -0.0008 Z
    Strength   :     0.0000111384
    D(    1) --> V(   74) amplitude =  0.7069 alpha
    D(    1) --> V(   74) amplitude =  0.7069 beta

 Excited state 149: excitation energy (eV) =     658.0790
 Total energy for state 149:                   -52.28940084 au
    <S**2>     :  2.0000
    Trans. Mom.:  0.0000 X  -0.0000 Y   0.0000 Z
    Strength   :     0.0000000000
    D(    1) --> V(   75) amplitude = -0.7018 alpha
    D(    1) --> V(   75) amplitude =  0.7018 beta

 Excited state 150: excitation energy (eV) =     658.3729
 Total energy for state 150:                   -52.27860302 au
    <S**2>     : -0.0000
    Trans. Mom.:  0.0000 X  -0.0235 Y   0.0000 Z
    Strength   :     0.0089227099
    D(    1) --> V(   75) amplitude =  0.7060 alpha
    D(    1) --> V(   75) amplitude =  0.7060 beta

 Excited state 151: excitation energy (eV) =     661.0614
 Total energy for state 151:                   -52.17980179 au
    <S**2>     :  2.0000
    Trans. Mom.:  0.0000 X  -0.0000 Y   0.0000 Z
    Strength   :     0.0000000000
    D(    1) --> V(   76) amplitude = -0.7067 alpha
    D(    1) --> V(   76) amplitude =  0.7067 beta

 Excited state 152: excitation energy (eV) =     661.0688
 Total energy for state 152:                   -52.17952834 au
    <S**2>     :  0.0000
    Trans. Mom.: -0.0000 X   0.0000 Y   0.0000 Z
    Strength   :     0.0000000000
    D(    1) --> V(   76) amplitude =  0.7067 alpha
    D(    1) --> V(   76) amplitude =  0.7067 beta

 Excited state 153: excitation energy (eV) =     662.3400
 Total energy for state 153:                   -52.13281347 au
    <S**2>     :  2.0000
    Trans. Mom.: -0.0000 X   0.0000 Y  -0.0000 Z
    Strength   :     0.0000000000
    D(    1) --> V(   77) amplitude = -0.7065 alpha
    D(    1) --> V(   77) amplitude =  0.7065 beta

 Excited state 154: excitation energy (eV) =     662.4289
 Total energy for state 154:                   -52.12954631 au
    <S**2>     :  0.0000
    Trans. Mom.: -0.0138 X   0.0000 Y   0.0000 Z
    Strength   :     0.0031107275
    D(    1) --> V(   77) amplitude =  0.7069 alpha
    D(    1) --> V(   77) amplitude =  0.7069 beta

 Excited state 155: excitation energy (eV) =     662.7188
 Total energy for state 155:                   -52.11889409 au
    <S**2>     :  2.0000
    Trans. Mom.:  0.0000 X  -0.0000 Y  -0.0000 Z
    Strength   :     0.0000000000
    D(    1) --> V(   78) amplitude = -0.7039 alpha
    D(    1) --> V(   78) amplitude =  0.7039 beta

 Excited state 156: excitation energy (eV) =     664.8936
 Total energy for state 156:                   -52.03896892 au
    <S**2>     :  0.0000
    Trans. Mom.: -0.0000 X  -0.0000 Y  -0.0508 Z
    Strength   :     0.0419886500
    D(    1) --> V(   78) amplitude =  0.7067 alpha
    D(    1) --> V(   78) amplitude =  0.7067 beta

 Excited state 157: excitation energy (eV) =     669.6981
 Total energy for state 157:                   -51.86240739 au
    <S**2>     :  2.0000
    Trans. Mom.: -0.0000 X   0.0000 Y  -0.0000 Z
    Strength   :     0.0000000000
    D(    1) --> V(   79) amplitude = -0.7036 alpha
    D(    1) --> V(   79) amplitude =  0.7036 beta

[...]
  54  O     f 6     -0.00000  -0.02262  -0.00000  -0.00000
  55  O     f 7     -0.00000   0.00000  -0.00000   0.02506
  56  O     f 1      0.00188  -0.00000  -0.02010   0.00000
  57  O     f 2     -0.00000  -0.00000   0.00000   0.00000
  58  O     f 3      0.04546   0.00000   0.13373  -0.00000
  59  O     f 4     -0.00000  -0.08275  -0.00000  -0.00000
  60  O     f 5      0.00000   0.00000  -0.00000  -0.03093
  61  O     f 6     -0.00000  -0.13906  -0.00000  -0.00000
  62  O     f 7      0.00000   0.00000  -0.00000   0.11424
  63  O     g 1     -0.00000   0.00000  -0.00000  -0.00000
  64  O     g 2      0.00047   0.00000  -0.00055  -0.00000
  65  O     g 3      0.00000  -0.00000  -0.00000   0.00000
  66  O     g 4      0.00074   0.00000   0.00100  -0.00000
  67  O     g 5      0.00000   0.00119   0.00000   0.00000
  68  O     g 6      0.00000   0.00000   0.00000   0.00037
  69  O     g 7      0.00000   0.00125   0.00000   0.00000
  70  O     g 8     -0.00000  -0.00000   0.00000   0.00216
  71  O     g 9     -0.00000   0.00038  -0.00000  -0.00000
  72  O     g 1      0.00000  -0.00000   0.00000   0.00000
  73  O     g 2      0.00094   0.00000   0.00020  -0.00000
  74  O     g 3     -0.00000   0.00000  -0.00000  -0.00000
  75  O     g 4     -0.00729  -0.00000  -0.01453   0.00000
  76  O     g 5      0.00000  -0.00074   0.00000   0.00000
  77  O     g 6      0.00000  -0.00000   0.00000  -0.00483
  78  O     g 7      0.00000  -0.00200   0.00000   0.00000
  79  O     g 8      0.00000  -0.00000   0.00000  -0.04237
  80  O     g 9     -0.00000  -0.01371  -0.00000  -0.00000
  81  O     h 1     -0.00014  -0.00000  -0.00092   0.00000
  82  O     h 2     -0.00000   0.00000  -0.00000  -0.00000
  83  O     h 3     -0.00089  -0.00000   0.00025   0.00000
  84  O     h 4      0.00000   0.00000   0.00000   0.00000
  85  O     h 5     -0.00007  -0.00000   0.00129  -0.00000
  86  O     h 6      0.00000   0.00187  -0.00000  -0.00000
  87  O     h 7     -0.00000   0.00000  -0.00000   0.00139
  88  O     h 8      0.00000   0.00230  -0.00000   0.00000
  89  O     h 9     -0.00000   0.00000   0.00000   0.00488
  90  O     h10      0.00000   0.00146   0.00000   0.00000
  91  O     h11      0.00000  -0.00000   0.00000  -0.00336
  92  H 1   s       -0.00474   0.01153  -0.02030  -0.00000
  93  H 1   s        0.01230  -0.07859  -0.04972  -0.00000
  94  H 1   s       -0.28409   1.55977  -0.94160   0.00000
  95  H 1   s       -0.10629   5.70309  -4.20355   0.00000
  96  H 1   s       -1.97847  -0.48583   0.59701   0.00000
  97  H 1   px       0.00000   0.00000   0.00000   0.00173
  98  H 1   py      -0.00278  -0.00058   0.00515   0.00000
  99  H 1   pz       0.00249   0.00132  -0.00250  -0.00000
 100  H 1   px      -0.00000  -0.00000  -0.00000  -0.01781
 101  H 1   py       0.00291   0.02283  -0.03662  -0.00000
 102  H 1   pz      -0.00369  -0.02194   0.02531  -0.00000
 103  H 1   px      -0.00000   0.00000   0.00000   0.22082
 104  H 1   py       0.04871  -0.48453   0.37280  -0.00000
 105  H 1   pz       0.01977   0.47916  -0.15811   0.00000
 106  H 1   px       0.00000   0.00000   0.00000   0.08544
 107  H 1   py       0.05828  -1.46832   0.88164  -0.00000
 108  H 1   pz      -0.04947   1.17451  -0.50645   0.00000
 109  H 1   d 1      0.00000  -0.00000   0.00000   0.00488
 110  H 1   d 2     -0.00082   0.00372   0.00008   0.00000
 111  H 1   d 3     -0.00071  -0.00253  -0.00125  -0.00000
 112  H 1   d 4      0.00000   0.00000  -0.00000  -0.00421
 113  H 1   d 5     -0.00128   0.00285   0.00003   0.00000
 114  H 1   d 1     -0.00000   0.00000  -0.00000  -0.04087
 115  H 1   d 2      0.00717  -0.05686   0.00683  -0.00000
 116  H 1   d 3      0.00867   0.02151   0.01431   0.00000
 117  H 1   d 4     -0.00000  -0.00000   0.00000   0.03391
 118  H 1   d 5      0.01311  -0.03333   0.01167  -0.00000
 119  H 1   d 1     -0.00000  -0.00000  -0.00000  -0.11830
 120  H 1   d 2      0.00743  -0.31463   0.13195  -0.00000
 121  H 1   d 3      0.02364   0.06851   0.06695  -0.00000
 122  H 1   d 4      0.00000   0.00000   0.00000   0.09464
 123  H 1   d 5      0.01137  -0.16605   0.13756  -0.00000
 124  H 1   f 1     -0.00097   0.00047  -0.00104   0.00000
 125  H 1   f 2     -0.00000   0.00000  -0.00000  -0.00247
 126  H 1   f 3     -0.00040  -0.00281  -0.00025  -0.00000
 127  H 1   f 4      0.00011  -0.00112  -0.00006  -0.00000
 128  H 1   f 5     -0.00000  -0.00000   0.00000  -0.00012
 129  H 1   f 6      0.00052  -0.00250   0.00139  -0.00000
 130  H 1   f 7      0.00000   0.00000  -0.00000  -0.00213
 131  H 1   f 1     -0.00304   0.02029  -0.01187   0.00000
 132  H 1   f 2      0.00000  -0.00000  -0.00000  -0.04315
 133  H 1   f 3     -0.00451  -0.03958  -0.01160  -0.00000
 134  H 1   f 4      0.00707  -0.00568   0.01681  -0.00000
 135  H 1   f 5      0.00000   0.00000  -0.00000   0.01735
 136  H 1   f 6      0.00518  -0.04084   0.01121  -0.00000
 137  H 1   f 7     -0.00000  -0.00000  -0.00000  -0.03246
 138  H 1   g 1      0.00000   0.00000   0.00000   0.00287
 139  H 1   g 2     -0.00057   0.00237  -0.00107   0.00000
 140  H 1   g 3     -0.00000  -0.00000  -0.00000  -0.00289
 141  H 1   g 4     -0.00074  -0.00180  -0.00152   0.00000
 142  H 1   g 5     -0.00010  -0.00167  -0.00039  -0.00000
 143  H 1   g 6     -0.00000   0.00000  -0.00000  -0.00056
 144  H 1   g 7     -0.00009  -0.00347  -0.00032  -0.00000
 145  H 1   g 8      0.00000   0.00000  -0.00000  -0.00479
 146  H 1   g 9     -0.00034   0.00095  -0.00086   0.00000
 147  H 2   s        0.00474   0.01153   0.02030  -0.00000
 148  H 2   s       -0.01230  -0.07859   0.04972  -0.00000
 149  H 2   s        0.28409   1.55977   0.94160   0.00000
 150  H 2   s        0.10629   5.70309   4.20355   0.00000
 151  H 2   s        1.97847  -0.48583  -0.59701   0.00000
 152  H 2   px      -0.00000   0.00000   0.00000   0.00173
 153  H 2   py      -0.00278   0.00058   0.00515  -0.00000
 154  H 2   pz      -0.00249   0.00132   0.00250  -0.00000
 155  H 2   px       0.00000  -0.00000   0.00000  -0.01781
 156  H 2   py       0.00291  -0.02283  -0.03662   0.00000
 157  H 2   pz       0.00369  -0.02194  -0.02531  -0.00000
 158  H 2   px      -0.00000   0.00000  -0.00000   0.22082
 159  H 2   py       0.04871   0.48453   0.37280   0.00000
 160  H 2   pz      -0.01977   0.47916   0.15811   0.00000
 161  H 2   px       0.00000  -0.00000  -0.00000   0.08544
 162  H 2   py       0.05828   1.46832   0.88164   0.00000
 163  H 2   pz       0.04947   1.17451   0.50645   0.00000
 164  H 2   d 1     -0.00000  -0.00000   0.00000  -0.00488
 165  H 2   d 2     -0.00082  -0.00372   0.00008  -0.00000
 166  H 2   d 3      0.00071  -0.00253   0.00125  -0.00000
 167  H 2   d 4      0.00000  -0.00000  -0.00000  -0.00421
 168  H 2   d 5      0.00128   0.00285  -0.00003   0.00000
 169  H 2   d 1      0.00000   0.00000  -0.00000   0.04087
 170  H 2   d 2      0.00717   0.05686   0.00683   0.00000
 171  H 2   d 3     -0.00867   0.02151  -0.01431   0.00000
 172  H 2   d 4      0.00000   0.00000  -0.00000   0.03391
 173  H 2   d 5     -0.01311  -0.03333  -0.01167  -0.00000
 174  H 2   d 1     -0.00000   0.00000  -0.00000   0.11830
 175  H 2   d 2      0.00743   0.31463   0.13195   0.00000
 176  H 2   d 3     -0.02364   0.06851  -0.06695  -0.00000
 177  H 2   d 4      0.00000   0.00000  -0.00000   0.09464
 178  H 2   d 5     -0.01137  -0.16605  -0.13756  -0.00000
 179  H 2   f 1     -0.00097  -0.00047  -0.00104  -0.00000
 180  H 2   f 2     -0.00000   0.00000   0.00000   0.00247
 181  H 2   f 3     -0.00040   0.00281  -0.00025   0.00000
 182  H 2   f 4     -0.00011  -0.00112   0.00006  -0.00000
 183  H 2   f 5     -0.00000  -0.00000   0.00000  -0.00012
 184  H 2   f 6     -0.00052  -0.00250  -0.00139  -0.00000
 185  H 2   f 7     -0.00000  -0.00000   0.00000  -0.00213
 186  H 2   f 1     -0.00304  -0.02029  -0.01187  -0.00000
 187  H 2   f 2      0.00000   0.00000  -0.00000   0.04315
 188  H 2   f 3     -0.00451   0.03958  -0.01160   0.00000
 189  H 2   f 4     -0.00707  -0.00568  -0.01681  -0.00000
 190  H 2   f 5      0.00000   0.00000  -0.00000   0.01735
 191  H 2   f 6     -0.00518  -0.04084  -0.01121  -0.00000
 192  H 2   f 7     -0.00000  -0.00000   0.00000  -0.03246
 193  H 2   g 1     -0.00000  -0.00000   0.00000  -0.00287
 194  H 2   g 2     -0.00057  -0.00237  -0.00107  -0.00000
 195  H 2   g 3      0.00000   0.00000  -0.00000   0.00289
 196  H 2   g 4     -0.00074   0.00180  -0.00152  -0.00000
 197  H 2   g 5      0.00010  -0.00167   0.00039  -0.00000
 198  H 2   g 6      0.00000  -0.00000   0.00000  -0.00056
 199  H 2   g 7      0.00009  -0.00347   0.00032  -0.00000
 200  H 2   g 8      0.00000  -0.00000   0.00000  -0.00479
 201  H 2   g 9      0.00034   0.00095   0.00086   0.00000


======= MOLECULAR ORBITALS IN MOLDEN FORMAT =======
[Molden Format]
[Atoms] (Angs)
  O      1    8      0.00000000      0.00000000      0.11680000
  H      2    1      0.00000000      0.76290000     -0.46720000
  H      3    1      0.00000000     -0.76290000     -0.46720000
[GTO]
1    0
S    10    1.000000
   1.64200000E+05    2.60000000E-05 
   2.45900000E+04    2.05000000E-04 
   5.59200000E+03    1.07600000E-03 
   1.58200000E+03    4.52200000E-03 
   5.16100000E+02    1.61080000E-02 
   1.87200000E+02    4.90850000E-02 
   7.39300000E+01    1.24857000E-01 
   3.12200000E+01    2.51686000E-01 
   1.38100000E+01    3.62420000E-01 
   6.25600000E+00    2.79051000E-01 
S    10    1.000000
   1.64200000E+05   -6.00000000E-06 
   2.45900000E+04   -4.60000000E-05 
   5.59200000E+03   -2.44000000E-04 
   1.58200000E+03   -1.03100000E-03 
   5.16100000E+02   -3.68800000E-03 
   1.87200000E+02   -1.15140000E-02 
   7.39300000E+01   -3.04350000E-02 
   3.12200000E+01   -6.81470000E-02 
   1.38100000E+01   -1.20368000E-01 
   6.25600000E+00   -1.48260000E-01 
S    1    1.000000
   2.77600000E+00    1.00000000E+00 
S    1    1.000000
   1.13800000E+00    1.00000000E+00 
S    1    1.000000
   4.60000000E-01    1.00000000E+00 
S    1    1.000000
   1.82900000E-01    1.00000000E+00 
P    4    1.000000
   1.95500000E+02    9.18000000E-04 
   4.61600000E+01    7.38800000E-03 
   1.45800000E+01    3.49580000E-02 
   5.29600000E+00    1.15431000E-01 
P    1    1.000000
   2.09400000E+00    1.00000000E+00 
P    1    1.000000
   8.47100000E-01    1.00000000E+00 
P    1    1.000000
   3.36800000E-01    1.00000000E+00 
P    1    1.000000
   1.28500000E-01    1.00000000E+00 
D    1    1.000000
   5.87900000E+00    1.00000000E+00 
D    1    1.000000
   2.30700000E+00    1.00000000E+00 
D    1    1.000000
   9.05000000E-01    1.00000000E+00 
D    1    1.000000
   3.55000000E-01    1.00000000E+00 
F    1    1.000000
   4.01600000E+00    1.00000000E+00 
F    1    1.000000
   1.55400000E+00    1.00000000E+00 
F    1    1.000000
   6.01000000E-01    1.00000000E+00 
G    1    1.000000
   3.35000000E+00    1.00000000E+00 
G    1    1.000000
   1.18900000E+00    1.00000000E+00 
H    1    1.000000
   2.31900000E+00    1.00000000E+00 

2    0
S    4    1.000000
   4.02000000E+02    2.79000000E-04 
   6.02400000E+01    2.16500000E-03 
   1.37300000E+01    1.12010000E-02 
   3.90500000E+00    4.48780000E-02 
S    1    1.000000
   1.28300000E+00    1.00000000E+00 
S    1    1.000000
   4.65500000E-01    1.00000000E+00 
S    1    1.000000
   1.81100000E-01    1.00000000E+00 
S    1    1.000000
   7.27900000E-02    1.00000000E+00 
P    1    1.000000
   4.51600000E+00    1.00000000E+00 
P    1    1.000000
   1.71200000E+00    1.00000000E+00 
P    1    1.000000
   6.49000000E-01    1.00000000E+00 
P    1    1.000000
   2.46000000E-01    1.00000000E+00 
D    1    1.000000
   2.95000000E+00    1.00000000E+00 
D    1    1.000000
   1.20600000E+00    1.00000000E+00 
D    1    1.000000
   4.93000000E-01    1.00000000E+00 
F    1    1.000000
   2.50600000E+00    1.00000000E+00 
F    1    1.000000
   8.75000000E-01    1.00000000E+00 
G    1    1.000000
   2.35800000E+00    1.00000000E+00 

3    0
S    4    1.000000
   4.02000000E+02    2.79000000E-04 
   6.02400000E+01    2.16500000E-03 
   1.37300000E+01    1.12010000E-02 
   3.90500000E+00    4.48780000E-02 
S    1    1.000000
   1.28300000E+00    1.00000000E+00 
S    1    1.000000
   4.65500000E-01    1.00000000E+00 
S    1    1.000000
   1.81100000E-01    1.00000000E+00 
S    1    1.000000
   7.27900000E-02    1.00000000E+00 
P    1    1.000000
   4.51600000E+00    1.00000000E+00 
P    1    1.000000
   1.71200000E+00    1.00000000E+00 
P    1    1.000000
   6.49000000E-01    1.00000000E+00 
P    1    1.000000
   2.46000000E-01    1.00000000E+00 
D    1    1.000000
   2.95000000E+00    1.00000000E+00 
D    1    1.000000
   1.20600000E+00    1.00000000E+00 
D    1    1.000000
   4.93000000E-01    1.00000000E+00 
F    1    1.000000
   2.50600000E+00    1.00000000E+00 
F    1    1.000000
   8.75000000E-01    1.00000000E+00 
G    1    1.000000
   2.35800000E+00    1.00000000E+00 

Molden output is not available for angular momentum beyond G

 Q-Chem warning in module libgen/WriteMolden.C, line 212:

 Skipping Molden MO output


======= END OF MOLDEN-FORMAT MOLECULAR ORBITALS =======

          Ground-State Mulliken Net Atomic Charges

     Atom                 Charge (a.u.)    Spin (a.u.)
  --------------------------------------------------------
      1 O                    -0.562207       0.000000
      2 H                     0.281103      -0.000000
      3 H                     0.281103      -0.000000
  --------------------------------------------------------
  Sum of atomic charges =     0.000000
  Sum of spin   charges =    -0.000000

 -----------------------------------------------------------------
                    Cartesian Multipole Moments
 -----------------------------------------------------------------
    Charge (ESU x 10^10)
                 0.0000
    Dipole Moment (Debye)
         X      -0.0000      Y       0.0000      Z      -1.8857
       Tot       1.8857
    Quadrupole Moments (Debye-Ang)
        XX      -7.6846     XY       0.0000     YY      -4.4230
        XZ       0.0000     YZ       0.0000     ZZ      -6.4384
    Octopole Moments (Debye-Ang^2)
       XXX      -0.0000    XXY       0.0000    XYY      -0.0000
       YYY       0.0000    XXZ      -0.2490    XYZ      -0.0000
       YYZ      -1.3089    XZZ      -0.0000    YZZ       0.0000
       ZZZ      -1.0673
    Hexadecapole Moments (Debye-Ang^3)
      XXXX      -7.0702   XXXY       0.0000   XXYY      -2.5929
      XYYY       0.0000   YYYY      -6.5124   XXXZ       0.0000
      XXYZ       0.0000   XYYZ      -0.0000   YYYZ       0.0000
      XXZZ      -2.5144   XYZZ       0.0000   YYZZ      -2.0625
      XZZZ      -0.0000   YZZZ       0.0000   ZZZZ      -7.7161
 -----------------------------------------------------------------
Grid information in Angstroms:
 x:         21  min =  -3.000000 max =   3.000000
 y:         26  min =  -3.762900 max =   3.762900
 z:         23  min =  -3.467200 max =   3.116800
 Plotting NTOs for the following states:  353 354 355 356 357 358 359 360 361 362 363 364 365 366 367 368 369 370 371 372 373 374 375 376 377 378 379 380 381 382 383 384 385 386 387 388 389 390
 Created directory /scratch/keith/1h2o_b3lyp_cc-pvtz/plots
 Total job time:  277.09s(wall), 6926.56s(cpu) 
 Wed Dec 11 18:22:58 2024

======= MOLDEN-FORMATTED INPUT FILE FOLLOWS =======
[Molden Format]
[Atoms] (Angs)
  O      1    8      0.00000000      0.00000000      0.11680000
  H      2    1      0.00000000      0.76290000     -0.46720000
  H      3    1      0.00000000     -0.76290000     -0.46720000
[GTO]
1    0
S    10    1.000000
   1.64200000E+05    2.60000000E-05 
   2.45900000E+04    2.05000000E-04 
   5.59200000E+03    1.07600000E-03 
   1.58200000E+03    4.52200000E-03 
   5.16100000E+02    1.61080000E-02 
   1.87200000E+02    4.90850000E-02 
   7.39300000E+01    1.24857000E-01 
   3.12200000E+01    2.51686000E-01 
   1.38100000E+01    3.62420000E-01 
   6.25600000E+00    2.79051000E-01 
S    10    1.000000
   1.64200000E+05   -6.00000000E-06 
   2.45900000E+04   -4.60000000E-05 
   5.59200000E+03   -2.44000000E-04 
   1.58200000E+03   -1.03100000E-03 
   5.16100000E+02   -3.68800000E-03 
   1.87200000E+02   -1.15140000E-02 
   7.39300000E+01   -3.04350000E-02 
   3.12200000E+01   -6.81470000E-02 
   1.38100000E+01   -1.20368000E-01 
   6.25600000E+00   -1.48260000E-01 
S    1    1.000000
   2.77600000E+00    1.00000000E+00 
S    1    1.000000
   1.13800000E+00    1.00000000E+00 
S    1    1.000000
   4.60000000E-01    1.00000000E+00 
S    1    1.000000
   1.82900000E-01    1.00000000E+00 
P    4    1.000000
   1.95500000E+02    9.18000000E-04 
   4.61600000E+01    7.38800000E-03 
   1.45800000E+01    3.49580000E-02 
   5.29600000E+00    1.15431000E-01 
P    1    1.000000
   2.09400000E+00    1.00000000E+00 
P    1    1.000000
   8.47100000E-01    1.00000000E+00 
P    1    1.000000
   3.36800000E-01    1.00000000E+00 
P    1    1.000000
   1.28500000E-01    1.00000000E+00 
D    1    1.000000
   5.87900000E+00    1.00000000E+00 
D    1    1.000000
   2.30700000E+00    1.00000000E+00 
D    1    1.000000
   9.05000000E-01    1.00000000E+00 
D    1    1.000000
   3.55000000E-01    1.00000000E+00 
F    1    1.000000
   4.01600000E+00    1.00000000E+00 
F    1    1.000000
   1.55400000E+00    1.00000000E+00 
F    1    1.000000
   6.01000000E-01    1.00000000E+00 
G    1    1.000000
   3.35000000E+00    1.00000000E+00 
G    1    1.000000
   1.18900000E+00    1.00000000E+00 
H    1    1.000000
   2.31900000E+00    1.00000000E+00 

2    0
S    4    1.000000
   4.02000000E+02    2.79000000E-04 
   6.02400000E+01    2.16500000E-03 
   1.37300000E+01    1.12010000E-02 
   3.90500000E+00    4.48780000E-02 
S    1    1.000000
   1.28300000E+00    1.00000000E+00 
S    1    1.000000
   4.65500000E-01    1.00000000E+00 
S    1    1.000000
   1.81100000E-01    1.00000000E+00 
S    1    1.000000
   7.27900000E-02    1.00000000E+00 
P    1    1.000000
   4.51600000E+00    1.00000000E+00 
P    1    1.000000
   1.71200000E+00    1.00000000E+00 
P    1    1.000000
   6.49000000E-01    1.00000000E+00 
P    1    1.000000
   2.46000000E-01    1.00000000E+00 
D    1    1.000000
   2.95000000E+00    1.00000000E+00 
D    1    1.000000
   1.20600000E+00    1.00000000E+00 
D    1    1.000000
   4.93000000E-01    1.00000000E+00 
F    1    1.000000
   2.50600000E+00    1.00000000E+00 
F    1    1.000000
   8.75000000E-01    1.00000000E+00 
G    1    1.000000
   2.35800000E+00    1.00000000E+00 

3    0
S    4    1.000000
   4.02000000E+02    2.79000000E-04 
   6.02400000E+01    2.16500000E-03 
   1.37300000E+01    1.12010000E-02 
   3.90500000E+00    4.48780000E-02 
S    1    1.000000
   1.28300000E+00    1.00000000E+00 
S    1    1.000000
   4.65500000E-01    1.00000000E+00 
S    1    1.000000
   1.81100000E-01    1.00000000E+00 
S    1    1.000000
   7.27900000E-02    1.00000000E+00 
P    1    1.000000
   4.51600000E+00    1.00000000E+00 
P    1    1.000000
   1.71200000E+00    1.00000000E+00 
P    1    1.000000
   6.49000000E-01    1.00000000E+00 
P    1    1.000000
   2.46000000E-01    1.00000000E+00 
D    1    1.000000
   2.95000000E+00    1.00000000E+00 
D    1    1.000000
   1.20600000E+00    1.00000000E+00 
D    1    1.000000
   4.93000000E-01    1.00000000E+00 
F    1    1.000000
   2.50600000E+00    1.00000000E+00 
F    1    1.000000
   8.75000000E-01    1.00000000E+00 
G    1    1.000000
   2.35800000E+00    1.00000000E+00 

Molden output is not available for angular momentum beyond G

 Q-Chem warning in module libgen/WriteMolden.C, line 212:

 Skipping Molden MO output


======= END OF MOLDEN-FORMATTED INPUT FILE =======


        *************************************************************
        *                                                           *
        *  Thank you very much for using Q-Chem.  Have a nice day.  *
        *                                                           *
        *************************************************************


